  80  80   1   0
  0.8627581E+02  0.1183403E-08  0.1024857E-08  0.5690928E-08  0.5000000E-15
  1.000000000000000E-004
  CAR 
 check layer dependance                  
      3.88089909    -22.93925100  301     -2.90132791      1.00000000
    -22.939  0.0000E+00  0.0000E+00
    -22.850  0.0000E+00  0.0000E+00
    -22.760  0.0000E+00  0.0000E+00
    -22.671  0.0000E+00  0.0000E+00
    -22.582 -0.3185E-30 -0.2847E-31
    -22.492 -0.6282E-24 -0.5616E-25
    -22.403 -0.2472E-18 -0.2210E-19
    -22.313 -0.1933E-13 -0.1728E-14
    -22.224 -0.2872E-09 -0.2568E-10
    -22.135 -0.8526E-06 -0.7625E-07
    -22.045 -0.4788E-03 -0.4288E-04
    -21.956 -0.4745E-01 -0.4285E-02
    -21.866 -0.6069E+00 -0.5854E-01
    -21.777  0.2759E+01  0.1881E+00
    -21.688  0.1460E+02  0.1494E+01
    -21.598  0.6037E+01  0.2033E+01
    -21.509  0.9921E+01  0.2920E+01
    -21.419  0.1207E+02  0.4000E+01
    -21.330  0.3875E+00  0.4034E+01
    -21.241 -0.3677E+00  0.4001E+01
    -21.151 -0.1424E-01  0.4000E+01
    -21.062 -0.8375E-04  0.4000E+01
    -20.972 -0.8955E-07  0.4000E+01
    -20.883 -0.1830E-10  0.4000E+01
    -20.794  0.0000E+00  0.4000E+01
    -20.704  0.0000E+00  0.4000E+01
    -20.615  0.0000E+00  0.4000E+01
    -20.525  0.0000E+00  0.4000E+01
    -20.436  0.0000E+00  0.4000E+01
    -20.347  0.0000E+00  0.4000E+01
    -20.257  0.0000E+00  0.4000E+01
    -20.168  0.0000E+00  0.4000E+01
    -20.078  0.0000E+00  0.4000E+01
    -19.989 -0.2056E-27  0.4000E+01
    -19.900 -0.2020E-21  0.4000E+01
    -19.810 -0.3952E-16  0.4000E+01
    -19.721 -0.1484E-11  0.4000E+01
    -19.631 -0.1119E-07  0.4000E+01
    -19.542 -0.1623E-04  0.4000E+01
    -19.453 -0.4362E-02  0.4000E+01
    -19.363 -0.1924E+00  0.3982E+01
    -19.274 -0.5040E+00  0.3937E+01
    -19.184  0.8503E+01  0.4697E+01
    -19.095  0.1376E+02  0.5928E+01
    -19.006  0.1316E+01  0.6046E+01
    -18.916 -0.4839E+00  0.6002E+01
    -18.827 -0.2571E-01  0.6000E+01
    -18.737 -0.1948E-03  0.6000E+01
    -18.648 -0.2650E-06  0.6000E+01
    -18.559 -0.6859E-10  0.6000E+01
    -18.469 -0.4967E-14  0.6000E+01
    -18.380  0.0000E+00  0.6000E+01
    -18.290  0.0000E+00  0.6000E+01
    -18.201  0.0000E+00  0.6000E+01
    -18.112  0.0000E+00  0.6000E+01
    -18.022  0.0000E+00  0.6000E+01
    -17.933 -0.1541E-28  0.6000E+01
    -17.843 -0.2009E-22  0.6000E+01
    -17.754 -0.5221E-17  0.6000E+01
    -17.665 -0.2606E-12  0.6000E+01
    -17.575 -0.2624E-08  0.6000E+01
    -17.486 -0.5095E-05  0.6000E+01
    -17.396 -0.1850E-02  0.6000E+01
    -17.307 -0.1142E+00  0.5990E+01
    -17.218 -0.6769E+00  0.5929E+01
    -17.128  0.5949E+01  0.6461E+01
    -17.039  0.1495E+02  0.7797E+01
    -16.949  0.2934E+01  0.8060E+01
    -16.860 -0.6172E+00  0.8005E+01
    -16.771 -0.5026E-01  0.8000E+01
    -16.681 -0.5633E-03  0.8000E+01
    -16.592 -0.8621E-02  0.7999E+01
    -16.502 -0.2829E+00  0.7974E+01
    -16.413 -0.1160E+00  0.7964E+01
    -16.324  0.1066E+02  0.8916E+01
    -16.234  0.1213E+02  0.1000E+02
    -16.145  0.3649E+00  0.1003E+02
    -16.055 -0.3640E+00  0.1000E+02
    -15.966 -0.1396E-01  0.1000E+02
    -15.877 -0.8142E-04  0.1000E+02
    -15.787 -0.8638E-07  0.1000E+02
    -15.698 -0.1752E-10  0.1000E+02
    -15.608  0.0000E+00  0.1000E+02
    -15.519  0.0000E+00  0.1000E+02
    -15.430  0.0000E+00  0.1000E+02
    -15.340  0.0000E+00  0.1000E+02
    -15.251  0.0000E+00  0.1000E+02
    -15.161  0.0000E+00  0.1000E+02
    -15.072  0.0000E+00  0.1000E+02
    -14.983  0.0000E+00  0.1000E+02
    -14.893  0.0000E+00  0.1000E+02
    -14.804 -0.6855E-26  0.1000E+02
    -14.714 -0.4548E-20  0.1000E+02
    -14.625 -0.6005E-15  0.1000E+02
    -14.536 -0.1516E-10  0.1000E+02
    -14.446 -0.7666E-07  0.1000E+02
    -14.357 -0.7415E-04  0.1000E+02
    -14.267 -0.1306E-01  0.9999E+01
    -14.178 -0.3521E+00  0.9967E+01
    -14.089  0.2863E+00  0.9993E+01
    -13.999  0.1194E+02  0.1106E+02
    -13.910  0.1087E+02  0.1203E+02
    -13.820 -0.5923E-01  0.1203E+02
    -13.731 -0.2943E+00  0.1200E+02
    -13.642 -0.6380E-01  0.1200E+02
    -13.552 -0.6313E+00  0.1194E+02
    -13.463  0.3181E+01  0.1222E+02
    -13.373  0.1503E+02  0.1357E+02
    -13.284  0.5634E+01  0.1407E+02
    -13.195 -0.6826E+00  0.1401E+02
    -13.105 -0.1063E+00  0.1400E+02
    -13.016 -0.1650E-02  0.1400E+02
    -12.926 -0.4370E-05  0.1400E+02
    -12.837 -0.2167E-08  0.1400E+02
    -12.748 -0.2086E-12  0.1400E+02
    -12.658  0.0000E+00  0.1400E+02
    -12.569 -0.3736E-29  0.1400E+02
    -12.479 -0.5680E-23  0.1400E+02
    -12.390 -0.1722E-17  0.1400E+02
    -12.301 -0.1013E-12  0.1400E+02
    -12.211 -0.1189E-08  0.1400E+02
    -12.122 -0.2738E-05  0.1400E+02
    -12.032 -0.1206E-02  0.1400E+02
    -11.943 -0.9607E-01  0.1399E+02
    -11.854 -0.1021E+01  0.1390E+02
    -11.764  0.4877E+01  0.1434E+02
    -11.675  0.2690E+02  0.1674E+02
    -11.585  0.1511E+02  0.1809E+02
    -11.496 -0.1080E+01  0.1800E+02
    -11.407  0.3976E+00  0.1803E+02
    -11.317  0.1296E+02  0.1919E+02
    -11.228  0.9631E+01  0.2005E+02
    -11.138 -0.6384E+00  0.1999E+02
    -11.049 -0.2413E+00  0.1997E+02
    -10.960  0.1105E+02  0.2096E+02
    -10.870  0.1132E+02  0.2197E+02
    -10.781  0.5533E+00  0.2202E+02
    -10.691  0.1297E+02  0.2318E+02
    -10.602  0.2235E+02  0.2518E+02
    -10.513  0.2027E+02  0.2699E+02
    -10.423  0.1135E+02  0.2801E+02
    -10.334 -0.2992E+00  0.2798E+02
    -10.244  0.8910E+01  0.2878E+02
    -10.155  0.1286E+02  0.2992E+02
    -10.066  0.1269E+01  0.3004E+02
     -9.976  0.1162E+02  0.3108E+02
     -9.887  0.1044E+02  0.3201E+02
     -9.797 -0.1105E+01  0.3191E+02
     -9.708  0.1152E+02  0.3294E+02
     -9.619  0.2704E+02  0.3536E+02
     -9.529  0.1027E+02  0.3628E+02
     -9.440  0.2975E+02  0.3894E+02
     -9.350  0.3333E+02  0.4192E+02
     -9.261  0.4420E+02  0.4587E+02
     -9.172  0.5356E+02  0.5066E+02
     -9.082  0.3524E+02  0.5381E+02
     -8.993  0.5412E+02  0.5864E+02
     -8.903  0.1102E+03  0.6850E+02
     -8.814  0.8355E+02  0.7597E+02
     -8.725  0.7633E+02  0.8279E+02
     -8.635  0.1325E+03  0.9464E+02
     -8.546  0.1296E+03  0.1062E+03
     -8.456  0.1133E+03  0.1164E+03
     -8.367  0.1581E+03  0.1305E+03
     -8.278  0.1301E+03  0.1421E+03
     -8.188  0.9855E+02  0.1509E+03
     -8.099  0.9064E+02  0.1590E+03
     -8.009  0.6628E+02  0.1650E+03
     -7.920  0.1106E+03  0.1749E+03
     -7.831  0.1372E+03  0.1871E+03
     -7.741  0.1065E+03  0.1966E+03
     -7.652  0.1423E+03  0.2094E+03
     -7.562  0.1386E+03  0.2217E+03
     -7.473  0.1077E+03  0.2314E+03
     -7.384  0.9254E+02  0.2396E+03
     -7.294  0.8519E+02  0.2473E+03
     -7.205  0.1481E+03  0.2605E+03
     -7.115  0.1938E+03  0.2778E+03
     -7.026  0.1476E+03  0.2910E+03
     -6.937  0.2226E+03  0.3109E+03
     -6.847  0.2541E+03  0.3336E+03
     -6.758  0.2341E+03  0.3546E+03
     -6.668  0.1354E+03  0.3667E+03
     -6.579  0.1762E+03  0.3824E+03
     -6.490  0.1615E+03  0.3969E+03
     -6.400  0.1452E+03  0.4098E+03
     -6.311  0.1120E+03  0.4198E+03
     -6.221  0.1404E+03  0.4324E+03
     -6.132  0.1936E+03  0.4497E+03
     -6.043  0.1858E+03  0.4663E+03
     -5.953  0.1642E+03  0.4810E+03
     -5.864  0.1469E+03  0.4941E+03
     -5.774  0.1210E+03  0.5049E+03
     -5.685  0.1017E+03  0.5140E+03
     -5.596  0.1578E+03  0.5281E+03
     -5.506  0.1755E+03  0.5438E+03
     -5.417  0.1985E+03  0.5616E+03
     -5.327  0.1902E+03  0.5786E+03
     -5.238  0.1595E+03  0.5929E+03
     -5.149  0.1429E+03  0.6056E+03
     -5.059  0.1387E+03  0.6180E+03
     -4.970  0.1950E+03  0.6355E+03
     -4.880  0.2690E+03  0.6595E+03
     -4.791  0.2423E+03  0.6812E+03
     -4.702  0.1439E+03  0.6940E+03
     -4.612  0.1178E+03  0.7046E+03
     -4.523  0.7917E+02  0.7116E+03
     -4.433  0.2483E+02  0.7139E+03
     -4.344  0.4094E+01  0.7142E+03
     -4.255  0.1296E+02  0.7154E+03
     -4.165  0.1248E+02  0.7165E+03
     -4.076  0.1287E+02  0.7177E+03
     -3.986  0.2530E+02  0.7199E+03
     -3.897  0.5085E+02  0.7245E+03
     -3.808  0.1885E+02  0.7261E+03
     -3.718 -0.2847E+01  0.7259E+03
     -3.629  0.7539E+01  0.7266E+03
     -3.539  0.4685E+02  0.7308E+03
     -3.450  0.7818E+02  0.7377E+03
     -3.361  0.2791E+02  0.7402E+03
     -3.271 -0.8208E+00  0.7402E+03
     -3.182  0.1338E+02  0.7414E+03
     -3.092  0.6569E+01  0.7420E+03
     -3.003  0.5443E+01  0.7424E+03
     -2.914  0.3367E+02  0.7454E+03
     -2.824  0.3969E+02  0.7490E+03
     -2.735  0.1718E+02  0.7505E+03
     -2.645  0.1366E+02  0.7518E+03
     -2.556  0.3094E+01  0.7520E+03
     -2.467  0.9304E+01  0.7529E+03
     -2.377  0.1738E+02  0.7544E+03
     -2.288  0.3122E+02  0.7572E+03
     -2.198  0.2442E+02  0.7594E+03
     -2.109  0.1613E+02  0.7608E+03
     -2.020  0.2147E+02  0.7628E+03
     -1.930  0.3259E+02  0.7657E+03
     -1.841  0.2479E+02  0.7679E+03
     -1.751  0.3306E+02  0.7708E+03
     -1.662  0.4805E+02  0.7751E+03
     -1.573  0.1240E+02  0.7762E+03
     -1.483  0.1413E+02  0.7775E+03
     -1.394  0.3077E+02  0.7803E+03
     -1.304  0.1954E+02  0.7820E+03
     -1.215  0.5121E+01  0.7825E+03
     -1.126  0.1864E+02  0.7841E+03
     -1.036  0.1713E+02  0.7857E+03
     -0.947  0.1186E+02  0.7867E+03
     -0.857  0.2557E+02  0.7890E+03
     -0.768  0.2531E+02  0.7913E+03
     -0.679  0.8518E+01  0.7920E+03
     -0.589 -0.2106E+01  0.7918E+03
     -0.500  0.2454E+02  0.7940E+03
     -0.410  0.5297E+02  0.7988E+03
     -0.321  0.1582E+02  0.8002E+03
     -0.232 -0.2862E+01  0.7999E+03
     -0.142  0.6337E+01  0.8005E+03
     -0.053  0.2738E+02  0.8029E+03
      0.037  0.3300E+02  0.8059E+03
      0.126  0.2468E+02  0.8081E+03
      0.215  0.1711E+02  0.8096E+03
      0.305  0.2643E+02  0.8120E+03
      0.394  0.4693E+02  0.8162E+03
      0.484  0.6304E+02  0.8218E+03
      0.573  0.4393E+02  0.8257E+03
      0.662  0.1809E+02  0.8274E+03
      0.752  0.8946E+01  0.8282E+03
      0.841  0.1566E+02  0.8296E+03
      0.931  0.1959E+02  0.8313E+03
      1.020  0.2593E+02  0.8336E+03
      1.109  0.5141E+02  0.8382E+03
      1.199  0.2970E+02  0.8409E+03
      1.288  0.1466E+02  0.8422E+03
      1.378  0.3320E+02  0.8452E+03
      1.467  0.5127E+02  0.8497E+03
      1.556  0.3874E+02  0.8532E+03
      1.646  0.2986E+02  0.8559E+03
      1.735  0.4660E+02  0.8600E+03
      1.825  0.4195E+02  0.8638E+03
      1.914  0.2911E+02  0.8664E+03
      2.003  0.4078E+02  0.8700E+03
      2.093  0.4317E+02  0.8739E+03
      2.182  0.3635E+02  0.8772E+03
      2.272  0.3644E+02  0.8804E+03
      2.361  0.3994E+02  0.8840E+03
      2.450  0.4493E+02  0.8880E+03
      2.540  0.3675E+02  0.8913E+03
      2.629  0.3137E+02  0.8941E+03
      2.719  0.2054E+02  0.8959E+03
      2.808  0.1589E+01  0.8961E+03
      2.897 -0.7331E+00  0.8960E+03
      2.987 -0.4597E-01  0.8960E+03
      3.076 -0.4275E-03  0.8960E+03
      3.166 -0.7230E-06  0.8960E+03
      3.255 -0.2339E-09  0.8960E+03
      3.344 -0.1490E-13  0.8960E+03
      3.434  0.0000E+00  0.8960E+03
      3.523  0.0000E+00  0.8960E+03
      3.613  0.0000E+00  0.8960E+03
      3.702  0.0000E+00  0.8960E+03
      3.791  0.0000E+00  0.8960E+03
      3.881  0.0000E+00  0.8960E+03
      3.88089909    -22.93925100  301     -2.90132791      1.00000000
    -22.939  0.0000E+00  0.0000E+00  0.0000E+00  0.0000E+00  0.0000E+00  0.0000E+00  0.0000E+00  0.0000E+00  0.0000E+00
    -22.850  0.0000E+00  0.0000E+00  0.0000E+00  0.0000E+00  0.0000E+00  0.0000E+00  0.0000E+00  0.0000E+00  0.0000E+00
    -22.760  0.0000E+00  0.0000E+00  0.0000E+00  0.0000E+00  0.0000E+00  0.0000E+00  0.0000E+00  0.0000E+00  0.0000E+00
    -22.671  0.0000E+00  0.0000E+00  0.0000E+00  0.0000E+00  0.0000E+00  0.0000E+00  0.0000E+00  0.0000E+00  0.0000E+00
    -22.582 -0.6274E-32 -0.6898E-33 -0.2699E-38 -0.2580E-34  0.0000E+00  0.0000E+00  0.0000E+00  0.0000E+00  0.0000E+00
    -22.492 -0.1238E-25 -0.1361E-26 -0.5324E-32 -0.5089E-28  0.0000E+00  0.0000E+00  0.0000E+00  0.0000E+00  0.0000E+00
    -22.403 -0.4870E-20 -0.5354E-21 -0.2095E-26 -0.2002E-22  0.0000E+00  0.0000E+00  0.0000E+00  0.0000E+00  0.0000E+00
    -22.313 -0.3808E-15 -0.4187E-16 -0.1638E-21 -0.1566E-17  0.0000E+00  0.0000E+00  0.0000E+00  0.0000E+00  0.0000E+00
    -22.224 -0.5657E-11 -0.6220E-12 -0.2434E-17 -0.2326E-13  0.0000E+00  0.0000E+00  0.0000E+00  0.0000E+00  0.0000E+00
    -22.135 -0.1680E-07 -0.1847E-08 -0.7225E-14 -0.6907E-10  0.0000E+00  0.0000E+00  0.0000E+00  0.0000E+00  0.0000E+00
    -22.045 -0.9433E-05 -0.1037E-05 -0.4058E-11 -0.3879E-07  0.0000E+00  0.0000E+00  0.0000E+00  0.0000E+00  0.0000E+00
    -21.956 -0.9346E-03 -0.1028E-03 -0.4021E-09 -0.3843E-05  0.0000E+00  0.0000E+00  0.0000E+00  0.0000E+00  0.0000E+00
    -21.866 -0.1195E-01 -0.1314E-02 -0.5143E-08 -0.4922E-04  0.0000E+00  0.0000E+00  0.0000E+00  0.0000E+00  0.0000E+00
    -21.777  0.5448E-01  0.5988E-02  0.2343E-07  0.2108E-03  0.0000E+00  0.0000E+00  0.0000E+00  0.0000E+00  0.0000E+00
    -21.688  0.2922E+00  0.3205E-01  0.1254E-06  0.7635E-03  0.0000E+00  0.0000E+00  0.0000E+00  0.0000E+00  0.0000E+00
    -21.598  0.1211E+00  0.1327E-01  0.5194E-07  0.2904E-03  0.0000E+00  0.0000E+00  0.0000E+00  0.0000E+00  0.0000E+00
    -21.509  0.2377E-01  0.5640E-02  0.2156E-07  0.1668E-01  0.0000E+00  0.0000E+00  0.0000E+00  0.0000E+00  0.0000E+00
    -21.419  0.4021E-01  0.7904E-02  0.3035E-07  0.1926E-01  0.0000E+00  0.0000E+00  0.0000E+00  0.0000E+00  0.0000E+00
    -21.330  0.1321E-02  0.2565E-03  0.9850E-09  0.6153E-03  0.0000E+00  0.0000E+00  0.0000E+00  0.0000E+00  0.0000E+00
    -21.241 -0.1284E-02 -0.2462E-03 -0.9460E-09 -0.5810E-03  0.0000E+00  0.0000E+00  0.0000E+00  0.0000E+00  0.0000E+00
    -21.151 -0.4973E-04 -0.9535E-05 -0.3663E-10 -0.2250E-04  0.0000E+00  0.0000E+00  0.0000E+00  0.0000E+00  0.0000E+00
    -21.062 -0.2925E-06 -0.5608E-07 -0.2155E-12 -0.1323E-06  0.0000E+00  0.0000E+00  0.0000E+00  0.0000E+00  0.0000E+00
    -20.972 -0.3127E-09 -0.5997E-10 -0.2304E-15 -0.1415E-09  0.0000E+00  0.0000E+00  0.0000E+00  0.0000E+00  0.0000E+00
    -20.883 -0.6393E-13 -0.1226E-13 -0.4709E-19 -0.2892E-13  0.0000E+00  0.0000E+00  0.0000E+00  0.0000E+00  0.0000E+00
    -20.794  0.0000E+00  0.0000E+00  0.0000E+00  0.0000E+00  0.0000E+00  0.0000E+00  0.0000E+00  0.0000E+00  0.0000E+00
    -20.704  0.0000E+00  0.0000E+00  0.0000E+00  0.0000E+00  0.0000E+00  0.0000E+00  0.0000E+00  0.0000E+00  0.0000E+00
    -20.615  0.0000E+00  0.0000E+00  0.0000E+00  0.0000E+00  0.0000E+00  0.0000E+00  0.0000E+00  0.0000E+00  0.0000E+00
    -20.525  0.0000E+00  0.0000E+00  0.0000E+00  0.0000E+00  0.0000E+00  0.0000E+00  0.0000E+00  0.0000E+00  0.0000E+00
    -20.436  0.0000E+00  0.0000E+00  0.0000E+00  0.0000E+00  0.0000E+00  0.0000E+00  0.0000E+00  0.0000E+00  0.0000E+00
    -20.347  0.0000E+00  0.0000E+00  0.0000E+00  0.0000E+00  0.0000E+00  0.0000E+00  0.0000E+00  0.0000E+00  0.0000E+00
    -20.257  0.0000E+00  0.0000E+00  0.0000E+00  0.0000E+00  0.0000E+00  0.0000E+00  0.0000E+00  0.0000E+00  0.0000E+00
    -20.168  0.0000E+00  0.0000E+00  0.0000E+00  0.0000E+00  0.0000E+00  0.0000E+00  0.0000E+00  0.0000E+00  0.0000E+00
    -20.078  0.0000E+00  0.0000E+00  0.0000E+00  0.0000E+00  0.0000E+00  0.0000E+00  0.0000E+00  0.0000E+00  0.0000E+00
    -19.989 -0.1726E-28 -0.9542E-30 -0.3378E-34 -0.9396E-30  0.0000E+00  0.0000E+00  0.0000E+00  0.0000E+00  0.0000E+00
    -19.900 -0.1696E-22 -0.9373E-24 -0.3318E-28 -0.9229E-24  0.0000E+00  0.0000E+00  0.0000E+00  0.0000E+00  0.0000E+00
    -19.810 -0.3318E-17 -0.1834E-18 -0.6492E-23 -0.1806E-18  0.0000E+00  0.0000E+00  0.0000E+00  0.0000E+00  0.0000E+00
    -19.721 -0.1246E-12 -0.6886E-14 -0.2437E-18 -0.6780E-14  0.0000E+00  0.0000E+00  0.0000E+00  0.0000E+00  0.0000E+00
    -19.631 -0.9392E-09 -0.5192E-10 -0.1838E-14 -0.5112E-10  0.0000E+00  0.0000E+00  0.0000E+00  0.0000E+00  0.0000E+00
    -19.542 -0.1363E-05 -0.7533E-07 -0.2666E-11 -0.7418E-07  0.0000E+00  0.0000E+00  0.0000E+00  0.0000E+00  0.0000E+00
    -19.453 -0.3662E-03 -0.2024E-04 -0.7166E-09 -0.1993E-04  0.0000E+00  0.0000E+00  0.0000E+00  0.0000E+00  0.0000E+00
    -19.363 -0.1615E-01 -0.8930E-03 -0.3161E-07 -0.8793E-03  0.0000E+00  0.0000E+00  0.0000E+00  0.0000E+00  0.0000E+00
    -19.274 -0.4231E-01 -0.2339E-02 -0.8279E-07 -0.2303E-02  0.0000E+00  0.0000E+00  0.0000E+00  0.0000E+00  0.0000E+00
    -19.184  0.7138E+00  0.3946E-01  0.1397E-05  0.3885E-01  0.0000E+00  0.0000E+00  0.0000E+00  0.0000E+00  0.0000E+00
    -19.095  0.1156E+01  0.6388E-01  0.2261E-05  0.6290E-01  0.0000E+00  0.0000E+00  0.0000E+00  0.0000E+00  0.0000E+00
    -19.006  0.1105E+00  0.6106E-02  0.2161E-06  0.6012E-02  0.0000E+00  0.0000E+00  0.0000E+00  0.0000E+00  0.0000E+00
    -18.916 -0.4063E-01 -0.2246E-02 -0.7950E-07 -0.2211E-02  0.0000E+00  0.0000E+00  0.0000E+00  0.0000E+00  0.0000E+00
    -18.827 -0.2159E-02 -0.1193E-03 -0.4224E-08 -0.1175E-03  0.0000E+00  0.0000E+00  0.0000E+00  0.0000E+00  0.0000E+00
    -18.737 -0.1636E-04 -0.9043E-06 -0.3201E-10 -0.8904E-06  0.0000E+00  0.0000E+00  0.0000E+00  0.0000E+00  0.0000E+00
    -18.648 -0.2225E-07 -0.1230E-08 -0.4354E-13 -0.1211E-08  0.0000E+00  0.0000E+00  0.0000E+00  0.0000E+00  0.0000E+00
    -18.559 -0.5759E-11 -0.3183E-12 -0.1127E-16 -0.3134E-12  0.0000E+00  0.0000E+00  0.0000E+00  0.0000E+00  0.0000E+00
    -18.469 -0.4170E-15 -0.2305E-16 -0.8160E-21 -0.2270E-16  0.0000E+00  0.0000E+00  0.0000E+00  0.0000E+00  0.0000E+00
    -18.380  0.0000E+00  0.0000E+00  0.0000E+00  0.0000E+00  0.0000E+00  0.0000E+00  0.0000E+00  0.0000E+00  0.0000E+00
    -18.290  0.0000E+00  0.0000E+00  0.0000E+00  0.0000E+00  0.0000E+00  0.0000E+00  0.0000E+00  0.0000E+00  0.0000E+00
    -18.201  0.0000E+00  0.0000E+00  0.0000E+00  0.0000E+00  0.0000E+00  0.0000E+00  0.0000E+00  0.0000E+00  0.0000E+00
    -18.112  0.0000E+00  0.0000E+00  0.0000E+00  0.0000E+00  0.0000E+00  0.0000E+00  0.0000E+00  0.0000E+00  0.0000E+00
    -18.022  0.0000E+00  0.0000E+00  0.0000E+00  0.0000E+00  0.0000E+00  0.0000E+00  0.0000E+00  0.0000E+00  0.0000E+00
    -17.933 -0.2111E-29 -0.2572E-32 -0.2967E-36 -0.9119E-31  0.0000E+00  0.0000E+00  0.0000E+00  0.0000E+00  0.0000E+00
    -17.843 -0.2752E-23 -0.3354E-26 -0.3869E-30 -0.1189E-24  0.0000E+00  0.0000E+00  0.0000E+00  0.0000E+00  0.0000E+00
    -17.754 -0.7152E-18 -0.8717E-21 -0.1006E-24 -0.3090E-19  0.0000E+00  0.0000E+00  0.0000E+00  0.0000E+00  0.0000E+00
    -17.665 -0.3570E-13 -0.4351E-16 -0.5019E-20 -0.1542E-14  0.0000E+00  0.0000E+00  0.0000E+00  0.0000E+00  0.0000E+00
    -17.575 -0.3594E-09 -0.4381E-12 -0.5053E-16 -0.1553E-10  0.0000E+00  0.0000E+00  0.0000E+00  0.0000E+00  0.0000E+00
    -17.486 -0.6980E-06 -0.8507E-09 -0.9813E-13 -0.3015E-07  0.0000E+00  0.0000E+00  0.0000E+00  0.0000E+00  0.0000E+00
    -17.396 -0.2535E-03 -0.3089E-06 -0.3564E-10 -0.1095E-04  0.0000E+00  0.0000E+00  0.0000E+00  0.0000E+00  0.0000E+00
    -17.307 -0.1565E-01 -0.1907E-04 -0.2200E-08 -0.6761E-03  0.0000E+00  0.0000E+00  0.0000E+00  0.0000E+00  0.0000E+00
    -17.218 -0.9274E-01 -0.1130E-03 -0.1304E-07 -0.4006E-02  0.0000E+00  0.0000E+00  0.0000E+00  0.0000E+00  0.0000E+00
    -17.128  0.8150E+00  0.9933E-03  0.1146E-06  0.3521E-01  0.0000E+00  0.0000E+00  0.0000E+00  0.0000E+00  0.0000E+00
    -17.039  0.2048E+01  0.2496E-02  0.2879E-06  0.8848E-01  0.0000E+00  0.0000E+00  0.0000E+00  0.0000E+00  0.0000E+00
    -16.949  0.4019E+00  0.4898E-03  0.5650E-07  0.1736E-01  0.0000E+00  0.0000E+00  0.0000E+00  0.0000E+00  0.0000E+00
    -16.860 -0.8456E-01 -0.1031E-03 -0.1189E-07 -0.3653E-02  0.0000E+00  0.0000E+00  0.0000E+00  0.0000E+00  0.0000E+00
    -16.771 -0.6885E-02 -0.8391E-05 -0.9680E-09 -0.2974E-03  0.0000E+00  0.0000E+00  0.0000E+00  0.0000E+00  0.0000E+00
    -16.681 -0.7330E-04 -0.3652E-06 -0.6216E-10 -0.3542E-05  0.0000E+00  0.0000E+00  0.0000E+00  0.0000E+00  0.0000E+00
    -16.592 -0.3772E-03 -0.5782E-04 -0.1083E-07 -0.9439E-04  0.0000E+00  0.0000E+00  0.0000E+00  0.0000E+00  0.0000E+00
    -16.502 -0.1238E-01 -0.1898E-02 -0.3556E-06 -0.3098E-02  0.0000E+00  0.0000E+00  0.0000E+00  0.0000E+00  0.0000E+00
    -16.413 -0.5074E-02 -0.7779E-03 -0.1458E-06 -0.1270E-02  0.0000E+00  0.0000E+00  0.0000E+00  0.0000E+00  0.0000E+00
    -16.324  0.4663E+00  0.7150E-01  0.1340E-04  0.1167E+00  0.0000E+00  0.0000E+00  0.0000E+00  0.0000E+00  0.0000E+00
    -16.234  0.5308E+00  0.8139E-01  0.1525E-04  0.1329E+00  0.0000E+00  0.0000E+00  0.0000E+00  0.0000E+00  0.0000E+00
    -16.145  0.1596E-01  0.2448E-02  0.4587E-06  0.3996E-02  0.0000E+00  0.0000E+00  0.0000E+00  0.0000E+00  0.0000E+00
    -16.055 -0.1593E-01 -0.2442E-02 -0.4575E-06 -0.3986E-02  0.0000E+00  0.0000E+00  0.0000E+00  0.0000E+00  0.0000E+00
    -15.966 -0.6106E-03 -0.9362E-04 -0.1754E-07 -0.1528E-03  0.0000E+00  0.0000E+00  0.0000E+00  0.0000E+00  0.0000E+00
    -15.877 -0.3562E-05 -0.5461E-06 -0.1023E-09 -0.8914E-06  0.0000E+00  0.0000E+00  0.0000E+00  0.0000E+00  0.0000E+00
    -15.787 -0.3779E-08 -0.5794E-09 -0.1086E-12 -0.9458E-09  0.0000E+00  0.0000E+00  0.0000E+00  0.0000E+00  0.0000E+00
    -15.698 -0.7665E-12 -0.1175E-12 -0.2202E-16 -0.1918E-12  0.0000E+00  0.0000E+00  0.0000E+00  0.0000E+00  0.0000E+00
    -15.608  0.0000E+00  0.0000E+00  0.0000E+00  0.0000E+00  0.0000E+00  0.0000E+00  0.0000E+00  0.0000E+00  0.0000E+00
    -15.519  0.0000E+00  0.0000E+00  0.0000E+00  0.0000E+00  0.0000E+00  0.0000E+00  0.0000E+00  0.0000E+00  0.0000E+00
    -15.430  0.0000E+00  0.0000E+00  0.0000E+00  0.0000E+00  0.0000E+00  0.0000E+00  0.0000E+00  0.0000E+00  0.0000E+00
    -15.340  0.0000E+00  0.0000E+00  0.0000E+00  0.0000E+00  0.0000E+00  0.0000E+00  0.0000E+00  0.0000E+00  0.0000E+00
    -15.251  0.0000E+00  0.0000E+00  0.0000E+00  0.0000E+00  0.0000E+00  0.0000E+00  0.0000E+00  0.0000E+00  0.0000E+00
    -15.161  0.0000E+00  0.0000E+00  0.0000E+00  0.0000E+00  0.0000E+00  0.0000E+00  0.0000E+00  0.0000E+00  0.0000E+00
    -15.072  0.0000E+00  0.0000E+00  0.0000E+00  0.0000E+00  0.0000E+00  0.0000E+00  0.0000E+00  0.0000E+00  0.0000E+00
    -14.983  0.0000E+00  0.0000E+00  0.0000E+00  0.0000E+00  0.0000E+00  0.0000E+00  0.0000E+00  0.0000E+00  0.0000E+00
    -14.893  0.0000E+00  0.0000E+00  0.0000E+00  0.0000E+00  0.0000E+00  0.0000E+00  0.0000E+00  0.0000E+00  0.0000E+00
    -14.804 -0.4516E-27 -0.8523E-30 -0.4172E-36 -0.1469E-27  0.0000E+00  0.0000E+00  0.0000E+00  0.0000E+00  0.0000E+00
    -14.714 -0.2996E-21 -0.5655E-24 -0.2768E-30 -0.9749E-22  0.0000E+00  0.0000E+00  0.0000E+00  0.0000E+00  0.0000E+00
    -14.625 -0.3956E-16 -0.7467E-19 -0.3654E-25 -0.1287E-16  0.0000E+00  0.0000E+00  0.0000E+00  0.0000E+00  0.0000E+00
    -14.536 -0.9985E-12 -0.1885E-14 -0.9224E-21 -0.3249E-12  0.0000E+00  0.0000E+00  0.0000E+00  0.0000E+00  0.0000E+00
    -14.446 -0.5050E-08 -0.9532E-11 -0.4665E-17 -0.1643E-08  0.0000E+00  0.0000E+00  0.0000E+00  0.0000E+00  0.0000E+00
    -14.357 -0.4885E-05 -0.9220E-08 -0.4512E-14 -0.1589E-05  0.0000E+00  0.0000E+00  0.0000E+00  0.0000E+00  0.0000E+00
    -14.267 -0.8605E-03 -0.1624E-05 -0.7949E-12 -0.2800E-03  0.0000E+00  0.0000E+00  0.0000E+00  0.0000E+00  0.0000E+00
    -14.178 -0.2319E-01 -0.4377E-04 -0.2142E-10 -0.7546E-02  0.0000E+00  0.0000E+00  0.0000E+00  0.0000E+00  0.0000E+00
    -14.089  0.1886E-01  0.3560E-04  0.1742E-10  0.6138E-02  0.0000E+00  0.0000E+00  0.0000E+00  0.0000E+00  0.0000E+00
    -13.999  0.7864E+00  0.1484E-02  0.7264E-09  0.2559E+00  0.0000E+00  0.0000E+00  0.0000E+00  0.0000E+00  0.0000E+00
    -13.910  0.7164E+00  0.1352E-02  0.6618E-09  0.2331E+00  0.0000E+00  0.0000E+00  0.0000E+00  0.0000E+00  0.0000E+00
    -13.820 -0.3902E-02 -0.7390E-05 -0.2316E-10 -0.1270E-02  0.0000E+00  0.0000E+00  0.0000E+00  0.0000E+00  0.0000E+00
    -13.731 -0.1936E-01 -0.4982E-04 -0.1031E-07 -0.6310E-02  0.0000E+00  0.0000E+00  0.0000E+00  0.0000E+00  0.0000E+00
    -13.642 -0.1802E-02 -0.1231E-02 -0.9514E-06 -0.1555E-02  0.0000E+00  0.0000E+00  0.0000E+00  0.0000E+00  0.0000E+00
    -13.552 -0.1381E-01 -0.1423E-01 -0.1101E-04 -0.1570E-01  0.0000E+00  0.0000E+00  0.0000E+00  0.0000E+00  0.0000E+00
    -13.463  0.6958E-01  0.7169E-01  0.5547E-04  0.7913E-01  0.0000E+00  0.0000E+00  0.0000E+00  0.0000E+00  0.0000E+00
    -13.373  0.3288E+00  0.3388E+00  0.2621E-03  0.3740E+00  0.0000E+00  0.0000E+00  0.0000E+00  0.0000E+00  0.0000E+00
    -13.284  0.1232E+00  0.1270E+00  0.9824E-04  0.1401E+00  0.0000E+00  0.0000E+00  0.0000E+00  0.0000E+00  0.0000E+00
    -13.195 -0.1493E-01 -0.1538E-01 -0.1190E-04 -0.1698E-01  0.0000E+00  0.0000E+00  0.0000E+00  0.0000E+00  0.0000E+00
    -13.105 -0.2325E-02 -0.2395E-02 -0.1853E-05 -0.2644E-02  0.0000E+00  0.0000E+00  0.0000E+00  0.0000E+00  0.0000E+00
    -13.016 -0.3608E-04 -0.3718E-04 -0.2876E-07 -0.4103E-04  0.0000E+00  0.0000E+00  0.0000E+00  0.0000E+00  0.0000E+00
    -12.926 -0.9558E-07 -0.9849E-07 -0.7620E-10 -0.1087E-06  0.0000E+00  0.0000E+00  0.0000E+00  0.0000E+00  0.0000E+00
    -12.837 -0.4741E-10 -0.4885E-10 -0.3779E-13 -0.5391E-10  0.0000E+00  0.0000E+00  0.0000E+00  0.0000E+00  0.0000E+00
    -12.748 -0.4563E-14 -0.4702E-14 -0.3638E-17 -0.5190E-14  0.0000E+00  0.0000E+00  0.0000E+00  0.0000E+00  0.0000E+00
    -12.658  0.0000E+00  0.0000E+00  0.0000E+00  0.0000E+00  0.0000E+00  0.0000E+00  0.0000E+00  0.0000E+00  0.0000E+00
    -12.569 -0.1186E-31 -0.2255E-31 -0.2054E-35 -0.9841E-31  0.0000E+00  0.0000E+00  0.0000E+00  0.0000E+00  0.0000E+00
    -12.479 -0.1802E-25 -0.3451E-25 -0.3554E-29 -0.1495E-24  0.0000E+00  0.0000E+00  0.0000E+00  0.0000E+00  0.0000E+00
    -12.390 -0.5460E-20 -0.1055E-19 -0.1241E-23 -0.4528E-19  0.0000E+00  0.0000E+00  0.0000E+00  0.0000E+00  0.0000E+00
    -12.301 -0.3210E-15 -0.6336E-15 -0.9572E-19 -0.2659E-14  0.0000E+00  0.0000E+00  0.0000E+00  0.0000E+00  0.0000E+00
    -12.211 -0.3758E-11 -0.7747E-11 -0.1692E-14 -0.3105E-10  0.0000E+00  0.0000E+00  0.0000E+00  0.0000E+00  0.0000E+00
    -12.122 -0.8611E-08 -0.1950E-07 -0.6907E-11 -0.7076E-07  0.0000E+00  0.0000E+00  0.0000E+00  0.0000E+00  0.0000E+00
    -12.032 -0.3751E-05 -0.1025E-04 -0.6039E-08 -0.3042E-04  0.0000E+00  0.0000E+00  0.0000E+00  0.0000E+00  0.0000E+00
    -11.943 -0.2908E-03 -0.1118E-02 -0.1029E-05 -0.2285E-02  0.0000E+00  0.0000E+00  0.0000E+00  0.0000E+00  0.0000E+00
    -11.854 -0.2847E-02 -0.2120E-01 -0.2782E-04 -0.2002E-01  0.0000E+00  0.0000E+00  0.0000E+00  0.0000E+00  0.0000E+00
    -11.764  0.1524E-01  0.3848E-01  0.1910E-04  0.1243E+00  0.0000E+00  0.0000E+00  0.0000E+00  0.0000E+00  0.0000E+00
    -11.675  0.7178E-01  0.6819E+00  0.9567E-03  0.4711E+00  0.0000E+00  0.0000E+00  0.0000E+00  0.0000E+00  0.0000E+00
    -11.585  0.3513E-01  0.5839E+00  0.9013E-03  0.1734E+00  0.0000E+00  0.0000E+00  0.0000E+00  0.0000E+00  0.0000E+00
    -11.496 -0.2104E-02 -0.3684E-02 -0.1462E-05 -0.1753E-01  0.0000E+00  0.0000E+00  0.0000E+00  0.0000E+00  0.0000E+00
    -11.407 -0.8349E-03 -0.1580E-01 -0.2172E-04 -0.3710E-02  0.0000E+00  0.0000E+00  0.0000E+00  0.0000E+00  0.0000E+00
    -11.317  0.4299E-04 -0.3796E-04  0.5059E-04 -0.6499E-04  0.0000E+00  0.0000E+00  0.0000E+00  0.0000E+00  0.0000E+00
    -11.228 -0.2011E-03  0.3426E-03  0.3758E-04 -0.2941E-04  0.0000E+00  0.0000E+00  0.0000E+00  0.0000E+00  0.0000E+00
    -11.138 -0.7749E-02 -0.1157E-03 -0.2031E-04 -0.1325E-02  0.0000E+00  0.0000E+00  0.0000E+00  0.0000E+00  0.0000E+00
    -11.049 -0.1141E-03 -0.1007E-04 -0.1216E-05 -0.1964E-04  0.0000E+00  0.0000E+00  0.0000E+00  0.0000E+00  0.0000E+00
    -10.960  0.2824E+00  0.3777E-02  0.6920E-03  0.4828E-01  0.0000E+00  0.0000E+00  0.0000E+00  0.0000E+00  0.0000E+00
    -10.870  0.2996E+00  0.3991E-02  0.7326E-03  0.5119E-01  0.0000E+00  0.0000E+00  0.0000E+00  0.0000E+00  0.0000E+00
    -10.781 -0.9772E-03 -0.3239E-03  0.1759E-04 -0.7220E-03  0.0000E+00  0.0000E+00  0.0000E+00  0.0000E+00  0.0000E+00
    -10.691  0.2025E-02  0.6037E-03  0.4796E-04  0.1251E-02  0.0000E+00  0.0000E+00  0.0000E+00  0.0000E+00  0.0000E+00
    -10.602  0.2053E+00  0.1268E-01  0.5458E-04  0.5253E-01  0.0000E+00  0.0000E+00  0.0000E+00  0.0000E+00  0.0000E+00
    -10.513  0.1593E+00  0.9823E-02  0.7248E-04  0.4075E-01  0.0000E+00  0.0000E+00  0.0000E+00  0.0000E+00  0.0000E+00
    -10.423 -0.4587E-02 -0.2517E-03  0.6988E-04 -0.1173E-02  0.0000E+00  0.0000E+00  0.0000E+00  0.0000E+00  0.0000E+00
    -10.334 -0.3990E-02 -0.2500E-03 -0.1644E-04 -0.1020E-02  0.0000E+00  0.0000E+00  0.0000E+00  0.0000E+00  0.0000E+00
    -10.244 -0.4052E-04  0.1297E-03  0.4385E-03 -0.2547E-04  0.0000E+00  0.0000E+00  0.0000E+00  0.0000E+00  0.0000E+00
    -10.155  0.9760E-04  0.1945E-03  0.6255E-03  0.3100E-05  0.0000E+00  0.0000E+00  0.0000E+00  0.0000E+00  0.0000E+00
    -10.066  0.7368E-05  0.1494E-04  0.4657E-04  0.6972E-06  0.0000E+00  0.0000E+00  0.0000E+00  0.0000E+00  0.0000E+00
     -9.976  0.1241E-04  0.3551E-04  0.6532E-04  0.1547E-04  0.0000E+00  0.0000E+00  0.0000E+00  0.0000E+00  0.0000E+00
     -9.887  0.1309E-04  0.2971E-04  0.7122E-04  0.1343E-04  0.0000E+00  0.0000E+00  0.0000E+00  0.0000E+00  0.0000E+00
     -9.797 -0.5080E-05 -0.4685E-04 -0.4622E-04 -0.2952E-05  0.0000E+00  0.0000E+00  0.0000E+00  0.0000E+00  0.0000E+00
     -9.708  0.3409E-04  0.3550E-03  0.2326E-03  0.1968E-04  0.0000E+00  0.0000E+00  0.0000E+00  0.0000E+00  0.0000E+00
     -9.619  0.1187E-03  0.1149E-02  0.1066E-02  0.6419E-04  0.0000E+00  0.0000E+00  0.0000E+00  0.0000E+00  0.0000E+00
     -9.529 -0.8867E-04 -0.1247E-02  0.8603E-03 -0.3677E-04  0.0000E+00  0.0000E+00  0.0000E+00  0.0000E+00  0.0000E+00
     -9.440 -0.2621E-02 -0.2984E-01  0.1524E-02 -0.1422E-02  0.0000E+00  0.0000E+00  0.0000E+00  0.0000E+00  0.0000E+00
     -9.350  0.9514E-02  0.1048E+00  0.1088E-02  0.5595E-02  0.0000E+00  0.0000E+00  0.0000E+00  0.0000E+00  0.0000E+00
     -9.261  0.7609E-01  0.8411E+00  0.4680E-02  0.4415E-01  0.0000E+00  0.0000E+00  0.0000E+00  0.0000E+00  0.0000E+00
     -9.172  0.4172E-01  0.4602E+00  0.3247E-02  0.2415E-01  0.0000E+00  0.0000E+00  0.0000E+00  0.0000E+00  0.0000E+00
     -9.082 -0.3714E-02 -0.5703E-01  0.1402E-02 -0.4506E-02  0.0000E+00  0.0000E+00  0.0000E+00  0.0000E+00  0.0000E+00
     -8.993  0.4853E-03  0.2210E-01  0.1700E-02  0.1890E-02  0.0000E+00  0.0000E+00  0.0000E+00  0.0000E+00  0.0000E+00