   80   80    1    1
  0.8627581E+02  0.1183403E-08  0.1024857E-08  0.5690928E-08  0.5000000E-15
  1.000000000000000E-004
  CAR 
 check layer dependance                  
  746    2  448
 
  0.2500000E+00  0.2500000E+00  0.0000000E+00  0.5000000E+00
   1      -21.720153
   2      -21.503479
   3      -19.166226
   4      -17.094304
   5      -16.318670
   6      -14.002757
   7      -13.409342
   8      -11.721809
   9      -11.676819
  10      -11.328474
  11      -10.957296
  12      -10.702342
  13      -10.611688
  14      -10.507909
  15      -10.230957
  16       -9.980669
  17       -9.694116
  18       -9.650222
  19       -9.480946
  20       -9.434467
  21       -9.408881
  22       -9.285869
  23       -9.276488
  24       -9.247662
  25       -9.223923
  26       -9.167889
  27       -9.082545
  28       -9.078035
  29       -9.012174
  30       -8.978541
  31       -8.951435
  32       -8.931273
  33       -8.927785
  34       -8.919994
  35       -8.908855
  36       -8.892396
  37       -8.882969
  38       -8.848354
  39       -8.791132
  40       -8.723854
  41       -8.722217
  42       -8.715501
  43       -8.713483
  44       -8.707962
  45       -8.692198
  46       -8.659805
  47       -8.657473
  48       -8.627497
  49       -8.626779
  50       -8.592208
  51       -8.574008
  52       -8.567143
  53       -8.561423
  54       -8.544113
  55       -8.528748
  56       -8.521036
  57       -8.497907
  58       -8.471564
  59       -8.418608
  60       -8.408885
  61       -8.406181
  62       -8.401912
  63       -8.397444
  64       -8.395386
  65       -8.391237
  66       -8.364976
  67       -8.356283
  68       -8.349422
  69       -8.345377
  70       -8.317812
  71       -8.309053
  72       -8.227806
  73       -8.222334
  74       -8.220833
  75       -8.209354
  76       -8.208669
  77       -8.189606
  78       -8.132830
  79       -8.128797
  80       -8.096545
  81       -8.076608
  82       -8.057773
  83       -7.992907
  84       -7.982721
  85       -7.948677
  86       -7.945007
  87       -7.915722
  88       -7.910572
  89       -7.906278
  90       -7.895795
  91       -7.889317
  92       -7.887621
  93       -7.847747
  94       -7.843446
  95       -7.829267
  96       -7.782760
  97       -7.763063
  98       -7.740638
  99       -7.732432
 100       -7.723241
 101       -7.709087
 102       -7.693404
 103       -7.677726
 104       -7.671251
 105       -7.658181
 106       -7.648462
 107       -7.636873
 108       -7.605472
 109       -7.585087
 110       -7.574479
 111       -7.563696
 112       -7.561438
 113       -7.551929
 114       -7.539045
 115       -7.471759
 116       -7.467692
 117       -7.453012
 118       -7.442599
 119       -7.411264
 120       -7.403745
 121       -7.389410
 122       -7.320212
 123       -7.314830
 124       -7.294141
 125       -7.281648
 126       -7.265222
 127       -7.253896
 128       -7.224557
 129       -7.212354
 130       -7.203937
 131       -7.203329
 132       -7.181212
 133       -7.170594
 134       -7.169727
 135       -7.163009
 136       -7.154754
 137       -7.149792
 138       -7.143412
 139       -7.139114
 140       -7.128665
 141       -7.109259
 142       -7.095502
 143       -7.050400
 144       -7.047938
 145       -7.017538
 146       -7.015800
 147       -7.013920
 148       -6.999693
 149       -6.989805
 150       -6.983476
 151       -6.980753
 152       -6.962829
 153       -6.952323
 154       -6.942599
 155       -6.939199
 156       -6.933753
 157       -6.931562
 158       -6.924198
 159       -6.919807
 160       -6.917593
 161       -6.914319
 162       -6.903854
 163       -6.887052
 164       -6.880548
 165       -6.863084
 166       -6.835521
 167       -6.832243
 168       -6.829218
 169       -6.819777
 170       -6.810313
 171       -6.810087
 172       -6.807102
 173       -6.806424
 174       -6.802079
 175       -6.798105
 176       -6.793557
 177       -6.777221
 178       -6.767190
 179       -6.760648
 180       -6.744653
 181       -6.741625
 182       -6.677760
 183       -6.640195
 184       -6.639159
 185       -6.635935
 186       -6.634822
 187       -6.628653
 188       -6.622661
 189       -6.614587
 190       -6.603275
 191       -6.591206
 192       -6.586736
 193       -6.577385
 194       -6.573456
 195       -6.550901
 196       -6.513579
 197       -6.503937
 198       -6.494591
 199       -6.480944
 200       -6.479882
 201       -6.465333
 202       -6.442872
 203       -6.438412
 204       -6.414394
 205       -6.412471
 206       -6.407734
 207       -6.375702
 208       -6.349920
 209       -6.333366
 210       -6.331147
 211       -6.327708
 212       -6.259180
 213       -6.249196
 214       -6.240994
 215       -6.225402
 216       -6.217969
 217       -6.213418
 218       -6.210134
 219       -6.203031
 220       -6.201499
 221       -6.201090
 222       -6.160656
 223       -6.158970
 224       -6.151511
 225       -6.146745
 226       -6.130196
 227       -6.098537
 228       -6.098109
 229       -6.096027
 230       -6.074028
 231       -6.063889
 232       -6.060095
 233       -6.049983
 234       -6.037587
 235       -6.030396
 236       -6.018056
 237       -6.003756
 238       -6.003031
 239       -6.000058
 240       -5.979178
 241       -5.930596
 242       -5.925374
 243       -5.919113
 244       -5.916972
 245       -5.896778
 246       -5.873326
 247       -5.872099
 248       -5.868845
 249       -5.849821
 250       -5.842188
 251       -5.816194
 252       -5.786460
 253       -5.769403
 254       -5.751805
 255       -5.742977
 256       -5.727365
 257       -5.675398
 258       -5.665403
 259       -5.647518
 260       -5.637905
 261       -5.630453
 262       -5.628342
 263       -5.615511
 264       -5.610479
 265       -5.599262
 266       -5.594201
 267       -5.579823
 268       -5.569494
 269       -5.539221
 270       -5.522551
 271       -5.507349
 272       -5.497863
 273       -5.495901
 274       -5.487951
 275       -5.478124
 276       -5.462151
 277       -5.456590
 278       -5.455327
 279       -5.452019
 280       -5.441487
 281       -5.428508
 282       -5.416409
 283       -5.403272
 284       -5.386885
 285       -5.372849
 286       -5.352414
 287       -5.345661
 288       -5.340695
 289       -5.330456
 290       -5.325687
 291       -5.318910
 292       -5.302428
 293       -5.301329
 294       -5.291386
 295       -5.280876
 296       -5.269669
 297       -5.225858
 298       -5.210654
 299       -5.193234
 300       -5.183373
 301       -5.175754
 302       -5.162375
 303       -5.146475
 304       -5.142911
 305       -5.138035
 306       -5.127604
 307       -5.112712
 308       -5.100113
 309       -5.053396
 310       -5.041192
 311       -5.038363
 312       -5.013641
 313       -5.007401
 314       -4.994104
 315       -4.989886
 316       -4.983513
 317       -4.977207
 318       -4.974099
 319       -4.967260
 320       -4.963275
 321       -4.950058
 322       -4.944419
 323       -4.929655
 324       -4.926159
 325       -4.921155
 326       -4.911822
 327       -4.905380
 328       -4.902010
 329       -4.894407
 330       -4.885334
 331       -4.881640
 332       -4.861818
 333       -4.853415
 334       -4.846883
 335       -4.840134
 336       -4.828416
 337       -4.823899
 338       -4.818143
 339       -4.808185
 340       -4.803870
 341       -4.793319
 342       -4.790000
 343       -4.786864
 344       -4.776638
 345       -4.773232
 346       -4.699850
 347       -4.686497
 348       -4.685061
 349       -4.679205
 350       -4.649370
 351       -4.641750
 352       -4.632187
 353       -4.625515
 354       -4.585105
 355       -4.556504
 356       -4.554867
 357       -4.476311
 358       -4.282557
 359       -4.133085
 360       -3.984132
 361       -3.971407
 362       -3.926567
 363       -3.898096
 364       -3.610609
 365       -3.567194
 366       -3.517818
 367       -3.497378
 368       -3.494824
 369       -3.466208
 370       -3.453777
 371       -3.204554
 372       -2.974152
 373       -2.917341
 374       -2.884693
 375       -2.831977
 376       -2.696495
 377       -2.465313
 378       -2.329126
 379       -2.317529
 380       -2.217659
 381       -2.099558
 382       -2.010260
 383       -1.924572
 384       -1.919445
 385       -1.759844
 386       -1.743520
 387       -1.734131
 388       -1.674914
 389       -1.511449
 390       -1.408710
 391       -1.390398
 392       -1.181992
 393       -1.081963
 394       -0.928496
 395       -0.859489
 396       -0.779382
 397       -0.493960
 398       -0.491940
 399       -0.446044
 400       -0.423375
 401       -0.114452
 402       -0.058140
 403        0.018908
 404        0.063222
 405        0.180658
 406        0.277567
 407        0.328752
 408        0.379626
 409        0.409005
 410        0.437420
 411        0.479272
 412        0.495260
 413        0.537985
 414        0.645806
 415        0.813217
 416        0.903903
 417        1.023519
 418        1.052316
 419        1.078216
 420        1.112369
 421        1.208945
 422        1.336172
 423        1.366849
 424        1.427951
 425        1.438078
 426        1.494104
 427        1.542607
 428        1.624354
 429        1.686376
 430        1.711248
 431        1.749704
 432        1.810267
 433        1.864663
 434        1.960296
 435        1.999133
 436        2.034410
 437        2.089788
 438        2.156213
 439        2.163967
 440        2.257908
 441        2.295443
 442        2.340507
 443        2.406659
 444        2.423970
 445        2.463039
 446        2.560867
 447        2.612680
 448        2.657025
 
 -0.2500000E+00  0.2500000E+00  0.0000000E+00  0.5000000E+00
   1      -21.720153
   2      -21.503479
   3      -19.166226
   4      -17.094304
   5      -16.318670
   6      -14.002757
   7      -13.409342
   8      -11.721809
   9      -11.676819
  10      -11.328474
  11      -10.957296
  12      -10.702342
  13      -10.611689
  14      -10.507908
  15      -10.230957
  16       -9.980669
  17       -9.694117
  18       -9.650220
  19       -9.480942
  20       -9.434467
  21       -9.408880
  22       -9.285929
  23       -9.276439
  24       -9.247661
  25       -9.223923
  26       -9.167889
  27       -9.082545
  28       -9.078028
  29       -9.012174
  30       -8.978541
  31       -8.951434
  32       -8.931273
  33       -8.927787
  34       -8.919981
  35       -8.908872
  36       -8.892396
  37       -8.882962
  38       -8.848354
  39       -8.791135
  40       -8.723853
  41       -8.722214
  42       -8.715508
  43       -8.713497
  44       -8.707946
  45       -8.692204
  46       -8.659801
  47       -8.657475
  48       -8.627496
  49       -8.626780
  50       -8.592211
  51       -8.574004
  52       -8.567138
  53       -8.561424
  54       -8.544113
  55       -8.528745
  56       -8.521037
  57       -8.497913
  58       -8.471563
  59       -8.418609
  60       -8.408885
  61       -8.406181
  62       -8.401915
  63       -8.397444
  64       -8.395383
  65       -8.391237
  66       -8.364976
  67       -8.356283
  68       -8.349422
  69       -8.345377
  70       -8.317809
  71       -8.309053
  72       -8.227806
  73       -8.222336
  74       -8.220827
  75       -8.209354
  76       -8.208669
  77       -8.189612
  78       -8.132830
  79       -8.128798
  80       -8.096544
  81       -8.076610
  82       -8.057771
  83       -7.992905
  84       -7.982720
  85       -7.948725
  86       -7.944905
  87       -7.915737
  88       -7.910593
  89       -7.906257
  90       -7.895817
  91       -7.889341
  92       -7.887620
  93       -7.847744
  94       -7.843451
  95       -7.829269
  96       -7.782759
  97       -7.763068
  98       -7.740630
  99       -7.732434
 100       -7.723244
 101       -7.709095
 102       -7.693392
 103       -7.677727
 104       -7.671249
 105       -7.658175
 106       -7.648456
 107       -7.636870
 108       -7.605471
 109       -7.585086
 110       -7.574479
 111       -7.563700
 112       -7.561441
 113       -7.551927
 114       -7.539042
 115       -7.471763
 116       -7.467697
 117       -7.453014
 118       -7.442598
 119       -7.411266
 120       -7.403740
 121       -7.389397
 122       -7.320195
 123       -7.314845
 124       -7.294175
 125       -7.281644
 126       -7.265215
 127       -7.253901
 128       -7.224542
 129       -7.212364
 130       -7.203932
 131       -7.203333
 132       -7.181214
 133       -7.170593
 134       -7.169725
 135       -7.163011
 136       -7.154755
 137       -7.149786
 138       -7.143422
 139       -7.139088
 140       -7.128664
 141       -7.109254
 142       -7.095509
 143       -7.050396
 144       -7.047942
 145       -7.017536
 146       -7.015801
 147       -7.013920
 148       -6.999692
 149       -6.989801
 150       -6.983461
 151       -6.980752
 152       -6.962835
 153       -6.952323
 154       -6.942610
 155       -6.939193
 156       -6.933760
 157       -6.931564
 158       -6.924200
 159       -6.919811
 160       -6.917588
 161       -6.914316
 162       -6.903856
 163       -6.887052
 164       -6.880551
 165       -6.863079
 166       -6.835503
 167       -6.832240
 168       -6.829217
 169       -6.819845
 170       -6.810314
 171       -6.810066
 172       -6.807131
 173       -6.806399
 174       -6.802080
 175       -6.798095
 176       -6.793571
 177       -6.777217
 178       -6.767183
 179       -6.760650
 180       -6.744653
 181       -6.741626
 182       -6.677760
 183       -6.640196
 184       -6.639149
 185       -6.635937
 186       -6.634826
 187       -6.628653
 188       -6.622661
 189       -6.614586
 190       -6.603275
 191       -6.591205
 192       -6.586722
 193       -6.577382
 194       -6.573446
 195       -6.550900
 196       -6.513575
 197       -6.503933
 198       -6.494590
 199       -6.480934
 200       -6.479872
 201       -6.465338
 202       -6.442875
 203       -6.438411
 204       -6.414399
 205       -6.412475
 206       -6.407744
 207       -6.375695
 208       -6.349922
 209       -6.333366
 210       -6.331144
 211       -6.327716
 212       -6.259178
 213       -6.249204
 214       -6.241002
 215       -6.225401
 216       -6.217974
 217       -6.213414
 218       -6.210142
 219       -6.203030
 220       -6.201499
 221       -6.201085
 222       -6.160655
 223       -6.158969
 224       -6.151511
 225       -6.146747
 226       -6.130199
 227       -6.098532
 228       -6.098112
 229       -6.096023
 230       -6.074021
 231       -6.063902
 232       -6.060091
 233       -6.049985
 234       -6.037651
 235       -6.030389
 236       -6.018053
 237       -6.003746
 238       -6.003034
 239       -6.000060
 240       -5.979181
 241       -5.930592
 242       -5.925330
 243       -5.919112
 244       -5.916973
 245       -5.896777
 246       -5.873327
 247       -5.872101
 248       -5.868842
 249       -5.849834
 250       -5.842188
 251       -5.816191
 252       -5.786454
 253       -5.769400
 254       -5.751827
 255       -5.742968
 256       -5.727364
 257       -5.675399
 258       -5.665404
 259       -5.647533
 260       -5.637908
 261       -5.630459
 262       -5.628344
 263       -5.615497
 264       -5.610423
 265       -5.599280
 266       -5.594196
 267       -5.579825
 268       -5.569495
 269       -5.539211
 270       -5.522476
 271       -5.507393
 272       -5.497850
 273       -5.495915
 274       -5.487996
 275       -5.478115
 276       -5.462174
 277       -5.456591
 278       -5.455350
 279       -5.452027
 280       -5.441520
 281       -5.428505
 282       -5.416382
 283       -5.403237
 284       -5.386873
 285       -5.372867
 286       -5.352303
 287       -5.345666
 288       -5.340627
 289       -5.330462
 290       -5.325728
 291       -5.319148
 292       -5.302419
 293       -5.301313
 294       -5.291379
 295       -5.280875
 296       -5.269636
 297       -5.225855
 298       -5.210658
 299       -5.193189
 300       -5.183394
 301       -5.175737
 302       -5.162373
 303       -5.146470
 304       -5.142893
 305       -5.138031
 306       -5.127611
 307       -5.112686
 308       -5.100140
 309       -5.053390
 310       -5.041197
 311       -5.038332
 312       -5.013646
 313       -5.007393
 314       -4.994060
 315       -4.989901
 316       -4.983504
 317       -4.977199
 318       -4.974102
 319       -4.967260
 320       -4.963286
 321       -4.950113
 322       -4.944452
 323       -4.929653
 324       -4.926158
 325       -4.921053
 326       -4.911818
 327       -4.905378
 328       -4.902001
 329       -4.894400
 330       -4.885325
 331       -4.881712
 332       -4.861779
 333       -4.853410
 334       -4.846891
 335       -4.840129
 336       -4.828424
 337       -4.823925
 338       -4.818147
 339       -4.808223
 340       -4.803860
 341       -4.793329
 342       -4.789990
 343       -4.786901
 344       -4.776631
 345       -4.773230
 346       -4.699849
 347       -4.686495
 348       -4.685055
 349       -4.679218
 350       -4.649370
 351       -4.641755
 352       -4.632177
 353       -4.625489
 354       -4.585106
 355       -4.556508
 356       -4.554867
 357       -4.476285
 358       -4.282557
 359       -4.133111
 360       -3.984128
 361       -3.971470
 362       -3.926559
 363       -3.898114
 364       -3.610610
 365       -3.567211
 366       -3.517828
 367       -3.497342
 368       -3.494822
 369       -3.466206
 370       -3.453702
 371       -3.204568
 372       -2.974154
 373       -2.917341
 374       -2.884701
 375       -2.831966
 376       -2.696493
 377       -2.465312
 378       -2.329106
 379       -2.317558
 380       -2.217659
 381       -2.099570
 382       -2.010260
 383       -1.924574
 384       -1.919446
 385       -1.759840
 386       -1.743517
 387       -1.734136
 388       -1.674912
 389       -1.511450
 390       -1.408710
 391       -1.390398
 392       -1.181993
 393       -1.081963
 394       -0.928513
 395       -0.859511
 396       -0.779369
 397       -0.493981
 398       -0.491909
 399       -0.446017
 400       -0.423383
 401       -0.114318
 402       -0.058139
 403        0.018952
 404        0.063197
 405        0.180519
 406        0.277569
 407        0.328736
 408        0.379775
 409        0.409060
 410        0.437373
 411        0.479058
 412        0.495180
 413        0.538106
 414        0.645718
 415        0.813383
 416        0.903897
 417        1.023401
 418        1.052017
 419        1.078247
 420        1.112330
 421        1.209092
 422        1.336794
 423        1.366860
 424        1.427433
 425        1.436644
 426        1.495247
 427        1.542459
 428        1.623866
 429        1.683458
 430        1.709596
 431        1.752471
 432        1.784532
 433        1.860289
 434        1.928475
 435        1.966742
 436        2.015334
 437        2.030095
 438        2.101614
 439        2.181857
 440        2.210048
 441        2.273260
 442        2.341537
 443        2.365402
 444        2.435082
 445        2.469226
 446        2.513962
 447        2.576642
 448        2.661801
