 vasp.5.2.11 18Jan11 complex 
 executed on             LinuxIFC date 2011.11.01  11:54:08
 running on   64 nodes
 distr:  one band on    1 nodes,   64 groups


--------------------------------------------------------------------------------------------------------


 INCAR:
 POTCAR:   PAW_PBE C 08Apr2002                    
 POTCAR:   PAW_PBE H 15Jun2001                    
 POTCAR:   PAW_PBE N 08Apr2002                    
 POTCAR:   PAW_PBE Au 06Sep2000                   
 POTCAR:   PAW_PBE C 08Apr2002                    
   VRHFIN =C: s2p2                                                              
   LEXCH  = PE                                                                  
   EATOM  =   147.1560 eV,   10.8157 Ry                                         
                                                                                
   TITEL  = PAW_PBE C 08Apr2002                                                 
   LULTRA =        F    use ultrasoft PP ?                                      
   IUNSCR =        0    unscreen: 0-lin 1-nonlin 2-no                           
   RPACOR =     .000    partial core radius                                     
   POMASS =   12.011; ZVAL   =    4.000    mass and valenz                      
   RCORE  =    1.500    outmost cutoff radius                                   
   RWIGS  =    1.630; RWIGS  =     .863    wigner-seitz radius (au A)           
   ENMAX  =  400.000; ENMIN  =  300.000 eV                                      
   ICORE  =        2    local potential                                         
   LCOR   =        T    correct aug charges                                     
   LPAW   =        T    paw PP                                                  
   EAUG   =  644.873                                                            
   DEXC   =     .000                                                            
   RMAX   =    2.266    core radius for proj-oper                               
   RAUG   =    1.300    factor for augmentation sphere                          
   RDEP   =    1.501    radius for radial grids                                 
   RDEPT  =    1.300    core radius for aug-charge                              
   QCUT   =   -5.516; QGAM   =   11.032    optimization parameters              
                                                                                
   Description                                                                  
     l     E      TYP  RCUT    TYP  RCUT                                        
     0   .000     23  1.200                                                     
     0   .000     23  1.200                                                     
     1   .000     23  1.500                                                     
     1  2.500     23  1.500                                                     
     2   .000      7  1.500                                                     
  local pseudopotential read in
  atomic valenz-charges read in
  non local Contribution for L=           0  read in
    real space projection operators read in
  non local Contribution for L=           0  read in
    real space projection operators read in
  non local Contribution for L=           1  read in
    real space projection operators read in
  non local Contribution for L=           1  read in
    real space projection operators read in
    PAW grid and wavefunctions read in
 
   number of l-projection  operators is LMAX  =           4
   number of lm-projection operators is LMMAX =           8
 
 POTCAR:   PAW_PBE H 15Jun2001                    
   VRHFIN =H: ultrasoft test                                                    
   LEXCH  = PE                                                                  
   EATOM  =    12.4884 eV,     .9179 Ry                                         
                                                                                
   TITEL  = PAW_PBE H 15Jun2001                                                 
   LULTRA =        F    use ultrasoft PP ?                                      
   IUNSCR =        0    unscreen: 0-lin 1-nonlin 2-no                           
   RPACOR =     .000    partial core radius                                     
   POMASS =    1.000; ZVAL   =    1.000    mass and valenz                      
   RCORE  =    1.100    outmost cutoff radius                                   
   RWIGS  =     .700; RWIGS  =     .370    wigner-seitz radius (au A)           
   ENMAX  =  250.000; ENMIN  =  200.000 eV                                      
   RCLOC  =     .701    cutoff for local pot                                    
   LCOR   =        T    correct aug charges                                     
   LPAW   =        T    paw PP                                                  
   EAUG   =  400.000                                                            
   RMAX   =    2.174    core radius for proj-oper                               
   RAUG   =    1.200    factor for augmentation sphere                          
   RDEP   =    1.112    radius for radial grids                                 
   QCUT   =   -5.749; QGAM   =   11.498    optimization parameters              
                                                                                
   Description                                                                  
     l     E      TYP  RCUT    TYP  RCUT                                        
     0   .000     23  1.100                                                     
     0   .500     23  1.100                                                     
     1  -.300     23  1.100                                                     
  local pseudopotential read in
  atomic valenz-charges read in
  non local Contribution for L=           0  read in
    real space projection operators read in
  non local Contribution for L=           0  read in
    real space projection operators read in
  non local Contribution for L=           1  read in
    real space projection operators read in
    PAW grid and wavefunctions read in
 
   number of l-projection  operators is LMAX  =           3
   number of lm-projection operators is LMMAX =           5
 
 POTCAR:   PAW_PBE N 08Apr2002                    
   VRHFIN =N: s2p3                                                              
   LEXCH  = PE                                                                  
   EATOM  =   264.5486 eV,   19.4438 Ry                                         
                                                                                
   TITEL  = PAW_PBE N 08Apr2002                                                 
   LULTRA =        F    use ultrasoft PP ?                                      
   IUNSCR =        0    unscreen: 0-lin 1-nonlin 2-no                           
   RPACOR =     .000    partial core radius                                     
   POMASS =   14.001; ZVAL   =    5.000    mass and valenz                      
   RCORE  =    1.500    outmost cutoff radius                                   
   RWIGS  =    1.400; RWIGS  =     .741    wigner-seitz radius (au A)           
   ENMAX  =  400.000; ENMIN  =  300.000 eV                                      
   ICORE  =        2    local potential                                         
   LCOR   =        T    correct aug charges                                     
   LPAW   =        T    paw PP                                                  
   EAUG   =  627.112                                                            
   DEXC   =     .000                                                            
   RMAX   =    2.247    core radius for proj-oper                               
   RAUG   =    1.300    factor for augmentation sphere                          
   RDEP   =    1.514    radius for radial grids                                 
   QCUT   =   -5.562; QGAM   =   11.124    optimization parameters              
                                                                                
   Description                                                                  
     l     E      TYP  RCUT    TYP  RCUT                                        
     0   .000     23  1.200                                                     
     0   .000     23  1.200                                                     
     1   .000     23  1.500                                                     
     1   .700     23  1.500                                                     
     2   .000      7  1.500                                                     
  local pseudopotential read in
  atomic valenz-charges read in
  non local Contribution for L=           0  read in
    real space projection operators read in
  non local Contribution for L=           0  read in
    real space projection operators read in
  non local Contribution for L=           1  read in
    real space projection operators read in
  non local Contribution for L=           1  read in
    real space projection operators read in
    PAW grid and wavefunctions read in
 
   number of l-projection  operators is LMAX  =           4
   number of lm-projection operators is LMMAX =           8
 
 POTCAR:   PAW_PBE Au 06Sep2000                   
   VRHFIN =Au: s1d10                                                            
   LEXCH  = PE                                                                  
   EATOM  =   926.0567 eV,   68.0632 Ry                                         
                                                                                
   TITEL  = PAW_PBE Au 06Sep2000                                                
   LULTRA =        F    use ultrasoft PP ?                                      
   IUNSCR =        1    unscreen: 0-lin 1-nonlin 2-no                           
   RPACOR =    2.330    partial core radius                                     
   POMASS =  196.966; ZVAL   =   11.000    mass and valenz                      
   RCORE  =    2.500    outmost cutoff radius                                   
   RWIGS  =    2.840; RWIGS  =    1.503    wigner-seitz radius (au A)           
   ENMAX  =  229.948; ENMIN  =  172.461 eV                                      
   RCLOC  =    1.964    cutoff for local pot                                    
   LCOR   =        T    correct aug charges                                     
   LPAW   =        T    paw PP                                                  
   EAUG   =  356.670                                                            
   DEXC   =    -.025                                                            
   RMAX   =    3.041    core radius for proj-oper                               
   RAUG   =    1.300    factor for augmentation sphere                          
   RDEP   =    2.598    radius for radial grids                                 
   QCUT   =   -4.111; QGAM   =    8.222    optimization parameters              
                                                                                
   Description                                                                  
     l     E      TYP  RCUT    TYP  RCUT                                        
     2   .000     23  2.500                                                     
     2   .000     23  2.500                                                     
     0   .000     23  2.500                                                     
     0   .000     23  2.500                                                     
     1  -.200     23  2.500                                                     
     1   .000     23  2.500                                                     
     3   .000      7   .000                                                     
  local pseudopotential read in
  partial core-charges read in
  atomic valenz-charges read in
  non local Contribution for L=           2  read in
    real space projection operators read in
  non local Contribution for L=           2  read in
    real space projection operators read in
  non local Contribution for L=           0  read in
    real space projection operators read in
  non local Contribution for L=           0  read in
    real space projection operators read in
  non local Contribution for L=           1  read in
    real space projection operators read in
  non local Contribution for L=           1  read in
    real space projection operators read in
    PAW grid and wavefunctions read in
 
   number of l-projection  operators is LMAX  =           6
   number of lm-projection operators is LMMAX =          18
 
 Optimization of the real space projectors (new method)

 maximal supplied QI-value         = 25.13
 optimisation between [QCUT,QGAM] = [ 10.56, 26.64] = [ 31.20,198.75] Ry 
 Optimized for a Real-space Cutoff    1.00 Angstroem

   l    n(q)    QCUT    max X(q) W(low)/X(q) W(high)/X(q)  e(spline) 
   0      8    10.556     5.582    0.29E-04    0.11E-04    0.10E-07
   0      8    10.556    69.432    0.25E-03    0.54E-05    0.19E-06
   1      7    10.556     2.780    0.22E-04    0.19E-04    0.35E-07
   1      7    10.556     4.549    0.18E-03    0.16E-03    0.66E-07
 Optimization of the real space projectors (new method)

 maximal supplied QI-value         = 34.20
 optimisation between [QCUT,QGAM] = [ 10.60, 26.68] = [ 31.48,199.32] Ry 
 Optimized for a Real-space Cutoff    0.86 Angstroem

   l    n(q)    QCUT    max X(q) W(low)/X(q) W(high)/X(q)  e(spline) 
   0      7    10.603     4.436    0.34E-04    0.65E-05    0.13E-07
   0      7    10.603    16.131    0.19E-03    0.29E-03    0.61E-07
   1      6    10.603     4.654    0.29E-03    0.45E-03    0.50E-07
 Optimization of the real space projectors (new method)

 maximal supplied QI-value         = 25.13
 optimisation between [QCUT,QGAM] = [ 10.56, 26.64] = [ 31.20,198.75] Ry 
 Optimized for a Real-space Cutoff    1.06 Angstroem

   l    n(q)    QCUT    max X(q) W(low)/X(q) W(high)/X(q)  e(spline) 
   0      8    10.556     4.511    0.22E-04    0.36E-05    0.16E-07
   0      8    10.556    37.799    0.13E-03    0.40E-04    0.17E-06
   1      8    10.556     2.478    0.12E-04    0.52E-06    0.32E-07
   1      8    10.556     7.266    0.40E-03    0.58E-03    0.41E-06
 Optimization of the real space projectors (new method)

 maximal supplied QI-value         = 15.12
 optimisation between [QCUT,QGAM] = [ 10.58, 26.61] = [ 31.36,198.25] Ry 
 Optimized for a Real-space Cutoff    1.47 Angstroem

   l    n(q)    QCUT    max X(q) W(low)/X(q) W(high)/X(q)  e(spline) 
   2     11    10.582     3.714    0.34E-05    0.80E-05    0.67E-07
   2     11    10.582    30.244    0.75E-04    0.10E-03    0.39E-06
   0     12    10.582    12.875    0.18E-04    0.11E-05    0.24E-06
   0     12    10.582    62.664    0.52E-04    0.10E-05    0.24E-05
   1     11    10.582     6.953    0.63E-05    0.39E-05    0.94E-07
   1     11    10.582    10.039    0.17E-04    0.19E-04    0.59E-06
 PAW_PBE C 08Apr2002                    :
 energy of atom  1       EATOM= -147.1560
 kinetic energy error for atom=    0.0142 (will be added to EATOM!!)
 PAW_PBE H 15Jun2001                    :
 energy of atom  2       EATOM=  -12.4884
 kinetic energy error for atom=    0.0056 (will be added to EATOM!!)
 PAW_PBE N 08Apr2002                    :
 energy of atom  3       EATOM= -264.5486
 kinetic energy error for atom=    0.0328 (will be added to EATOM!!)
 PAW_PBE Au 06Sep2000                   :
 energy of atom  4       EATOM= -926.0567
 kinetic energy error for atom=    0.0058 (will be added to EATOM!!)
 
 
 POSCAR:   C H N Au                              
  positions in cartesian coordinates
  No initial velocities read in
 exchange correlation table for  LEXCH =        8
   RHO(1)=    0.500       N(1)  =     2000
   RHO(2)=  100.500       N(2)  =     4000
 


--------------------------------------------------------------------------------------------------------


 ion  position               nearest neighbor table
   1  0.192  0.384  0.710-   7 1.09   2 1.39   6 1.40
   2  0.310  0.384  0.710-   8 1.09   1 1.39   3 1.40
   3  0.371  0.501  0.710-   2 1.40   4 1.40  16 1.41
   4  0.310  0.618  0.710-   9 1.09   5 1.39   3 1.40
   5  0.192  0.618  0.710-  10 1.09   4 1.39   6 1.40
   6  0.130  0.501  0.710-   5 1.40   1 1.40  15 1.40
   7  0.146  0.291  0.710-   1 1.09
   8  0.355  0.291  0.710-   2 1.09
   9  0.355  0.711  0.709-   4 1.09
  10  0.146  0.711  0.709-   5 1.09
  11  0.527  0.583  0.715-  16 1.02
  12  0.527  0.420  0.715-  16 1.02
  13  0.974  0.583  0.715-  15 1.02
  14  0.974  0.419  0.715-  15 1.02
  15  0.012  0.501  0.709-  14 1.02  13 1.02   6 1.40
  16  0.490  0.501  0.709-  12 1.02  11 1.02   3 1.41
  17  0.000  0.000  0.521-  45 2.96  20 2.96  29 2.96  32 2.96  33 2.96  36 2.96  21 2.96  18 2.96
                            24 2.96
  18  0.250  0.000  0.521-  30 2.96  46 2.96  19 2.96  34 2.96  29 2.96  22 2.96  33 2.96  21 2.96
                            17 2.96
  19  0.500  0.000  0.521-  47 2.96  18 2.96  30 2.96  31 2.96  34 2.96  35 2.96  22 2.96  23 2.96
                            20 2.96
  20  0.750  0.000  0.521-  32 2.96  48 2.96  36 2.96  17 2.96  31 2.96  24 2.96  35 2.96  23 2.96
                            19 2.96
  21  0.125  0.250  0.521-  22 2.96  25 2.96  26 2.96  33 2.96  37 2.96  38 2.96  17 2.96  18 2.96
                            24 2.96
  22  0.375  0.250  0.521-  26 2.96  38 2.96  21 2.96  27 2.96  34 2.96  39 2.96  18 2.96  19 2.96
                            23 2.96
  23  0.625  0.250  0.521-  24 2.96  28 2.96  27 2.96  35 2.96  40 2.96  39 2.96  20 2.96  19 2.96
                            22 2.96
  24  0.875  0.250  0.521-  28 2.96  40 2.96  23 2.96  25 2.96  36 2.96  37 2.96  20 2.96  17 2.96
                            21 2.96
  25  0.000  0.500  0.521-  21 2.96  24 2.96  28 2.96  37 2.96  41 2.96  44 2.96  29 2.96  26 2.96
                            32 2.96
  26  0.250  0.500  0.521-  22 2.96  27 2.96  42 2.96  21 2.96  38 2.96  30 2.96  41 2.96  29 2.96
                            25 2.96
  27  0.500  0.500  0.521-  26 2.96  22 2.96  23 2.96  39 2.96  42 2.96  43 2.96  30 2.96  31 2.96
                            28 2.96
  28  0.750  0.500  0.521-  24 2.96  44 2.96  23 2.96  25 2.96  40 2.96  32 2.96  43 2.96  31 2.96
                            27 2.96
  29  0.125  0.750  0.521-  30 2.96  41 2.96  17 2.96  18 2.96  45 2.96  46 2.96  25 2.96  26 2.96
                            32 2.96
  30  0.375  0.750  0.521-  18 2.96  29 2.96  46 2.96  42 2.96  19 2.96  26 2.96  47 2.96  27 2.96
                            31 2.96
  31  0.625  0.750  0.521-  32 2.96  43 2.96  20 2.96  19 2.96  48 2.96  47 2.96  28 2.96  27 2.96
                            30 2.96
  32  0.875  0.750  0.521-  20 2.96  31 2.96  48 2.96  44 2.96  17 2.96  28 2.96  45 2.96  25 2.96
                            29 2.96
  33  0.125  0.083  0.564-  34 2.96  37 2.96  38 2.96  21 2.96  45 2.96  46 2.96  17 2.96  18 2.96
                            61 2.96  50 2.96  49 2.96  36 2.96
  34  0.375  0.083  0.564-  38 2.96  46 2.96  33 2.96  18 2.96  39 2.96  22 2.96  47 2.96  19 2.96
                            50 2.96  62 2.96  35 2.96  51 2.96
  35  0.625  0.083  0.564-  36 2.96  40 2.96  39 2.96  23 2.96  48 2.96  47 2.96  20 2.96  19 2.96
                            63 2.96  34 2.96  52 2.96  51 2.96
  36  0.875  0.083  0.564-  40 2.96  48 2.96  35 2.96  20 2.96  37 2.96  24 2.96  45 2.96  52 2.96
                            64 2.96  17 2.96  49 2.96  33 2.96
  37  0.000  0.333  0.564-  33 2.96  36 2.96  40 2.96  25 2.96  21 2.96  24 2.96  41 2.96  38 2.96
                            44 2.96  49 2.96  53 2.96  56 2.96
  38  0.250  0.333  0.564-  34 2.96  22 2.96  39 2.96  33 2.96  26 2.96  21 2.96  42 2.96  54 2.96
                            41 2.96  37 2.96  50 2.96  53 2.96
  39  0.500  0.333  0.564-  38 2.96  34 2.96  35 2.96  27 2.96  22 2.96  23 2.96  42 2.96  43 2.96
                            40 2.96  51 2.96  54 2.96  55 2.96
  40  0.750  0.333  0.564-  36 2.96  24 2.96  35 2.96  37 2.96  28 2.96  23 2.96  44 2.96  56 2.96
                            43 2.96  39 2.96  52 2.96  55 2.96
  41  0.125  0.583  0.564-  42 2.96  29 2.96  25 2.96  26 2.96  38 2.96  37 2.96  45 2.96  46 2.96
                            53 2.96  44 2.96  57 2.96  58 2.96
  42  0.375  0.583  0.564-  41 2.96  26 2.96  30 2.96  38 2.96  46 2.96  27 2.96  58 2.96  39 2.96
                            47 2.96  43 2.96  54 2.96  59 2.96
  43  0.625  0.583  0.564-  44 2.96  31 2.96  28 2.96  27 2.96  40 2.96  39 2.96  48 2.96  47 2.96
                            42 2.96  55 2.96  60 2.96  59 2.96
  44  0.875  0.583  0.564-  43 2.96  28 2.96  32 2.96  40 2.96  48 2.96  25 2.96  60 2.96  37 2.96
                            45 2.96  56 2.96  41 2.96  57 2.96
  45  0.000  0.833  0.564-  17 2.96  48 2.96  33 2.96  36 2.96  29 2.96  32 2.96  41 2.96  46 2.96
                            44 2.96  57 2.96  61 2.96  64 2.96
  46  0.250  0.833  0.564-  34 2.96  18 2.96  47 2.96  30 2.96  33 2.96  42 2.96  29 2.96  62 2.96
                            41 2.96  45 2.96  58 2.96  61 2.96
  47  0.500  0.833  0.564-  19 2.96  46 2.96  34 2.96  35 2.96  30 2.96  31 2.96  42 2.96  43 2.96
                            48 2.96  59 2.96  62 2.96  63 2.96
  48  0.750  0.833  0.564-  36 2.96  20 2.96  32 2.96  45 2.96  35 2.96  44 2.96  31 2.96  64 2.96
                            43 2.96  47 2.96  60 2.96  63 2.96
  49  0.000  0.167  0.606-  61 2.96  64 2.96  52 2.96  65 2.96  69 2.96  72 2.96  53 2.96  50 2.96
                            56 2.96  37 2.96  33 2.96  36 2.96
  50  0.250  0.167  0.606-  62 2.96  61 2.96  51 2.96  70 2.96  66 2.96  54 2.96  69 2.96  34 2.96
                            53 2.96  49 2.96  38 2.96  33 2.96
  51  0.500  0.167  0.606-  62 2.96  63 2.96  50 2.96  67 2.96  70 2.96  71 2.96  54 2.96  55 2.96
                            52 2.96  39 2.96  34 2.96  35 2.96
  52  0.750  0.167  0.606-  64 2.96  63 2.96  72 2.96  49 2.96  68 2.96  56 2.96  71 2.96  36 2.96
                            55 2.96  51 2.96  40 2.96  35 2.96
  53  0.125  0.417  0.606-  54 2.96  69 2.96  73 2.96  74 2.96  58 2.96  50 2.96  49 2.96  57 2.96
                            41 2.96  56 2.96  37 2.96  38 2.96
  54  0.375  0.417  0.606-  74 2.96  53 2.96  70 2.96  75 2.96  58 2.96  50 2.96  38 2.96  59 2.96
                            51 2.96  55 2.96  42 2.96  39 2.96
  55  0.625  0.417  0.606-  56 2.96  71 2.96  76 2.96  75 2.96  60 2.96  52 2.96  51 2.96  59 2.96
                            54 2.96  43 2.96  40 2.96  39 2.96
  56  0.875  0.417  0.606-  76 2.96  55 2.96  72 2.96  73 2.96  60 2.96  52 2.96  40 2.96  49 2.96
                            57 2.96  44 2.96  53 2.96  37 2.96
  57  0.000  0.667  0.606-  60 2.96  77 2.96  80 2.96  73 2.96  53 2.96  61 2.96  58 2.96  56 2.96
                            64 2.96  45 2.96  41 2.96  44 2.96
  58  0.250  0.667  0.606-  78 2.96  59 2.96  77 2.96  54 2.96  62 2.96  74 2.96  42 2.96  53 2.96
                            61 2.96  57 2.96  46 2.96  41 2.96
  59  0.500  0.667  0.606-  58 2.96  78 2.96  79 2.96  75 2.96  54 2.96  55 2.96  62 2.96  63 2.96
                            60 2.96  47 2.96  42 2.96  43 2.96
  60  0.750  0.667  0.606-  80 2.96  57 2.96  79 2.96  56 2.96  64 2.96  76 2.96  44 2.96  55 2.96
                            63 2.96  59 2.96  48 2.96  43 2.96
  61  0.125  0.917  0.606-  49 2.96  50 2.96  62 2.96  65 2.96  66 2.96  33 2.96  77 2.96  57 2.96
                            58 2.96  64 2.96  46 2.96  45 2.96
  62  0.375  0.917  0.606-  50 2.96  51 2.96  66 2.96  61 2.96  67 2.96  58 2.96  34 2.96  78 2.96
                            46 2.96  59 2.96  63 2.96  47 2.96
  63  0.625  0.917  0.606-  52 2.96  51 2.96  64 2.96  68 2.96  67 2.96  35 2.96  79 2.96  60 2.96
                            59 2.96  62 2.96  48 2.96  47 2.96
  64  0.875  0.917  0.606-  52 2.96  49 2.96  68 2.96  63 2.96  65 2.96  60 2.96  36 2.96  80 2.96
                            48 2.96  57 2.96  61 2.96  45 2.96
  65  0.000  0.000  0.649-  61 2.96  64 2.96  68 2.96  49 2.96  77 2.96  80 2.96  69 2.96  66 2.96
                            72 2.96
  66  0.250  0.000  0.649-  62 2.96  78 2.96  67 2.96  61 2.96  50 2.96  77 2.96  70 2.96  69 2.96
                            65 2.96
  67  0.500  0.000  0.649-  66 2.96  62 2.96  63 2.96  51 2.96  78 2.96  79 2.96  70 2.96  71 2.96
                            68 2.96
  68  0.750  0.000  0.649-  64 2.96  80 2.96  63 2.96  65 2.96  52 2.96  79 2.96  72 2.96  71 2.96
                            67 2.96
  69  0.125  0.250  0.649-  70 2.96  73 2.96  74 2.96  53 2.96  49 2.96  50 2.96  66 2.96  65 2.96
                            72 2.96
  70  0.375  0.250  0.649-  74 2.96  69 2.96  50 2.96  75 2.96  54 2.96  66 2.96  51 2.96  67 2.96
                            71 2.96
  71  0.625  0.250  0.649-  72 2.96  76 2.96  75 2.96  55 2.96  52 2.96  51 2.96  68 2.96  67 2.96
                            70 2.96
  72  0.875  0.250  0.649-  76 2.96  71 2.96  52 2.96  73 2.96  56 2.96  68 2.96  49 2.96  65 2.96
                            69 2.96
  73  0.000  0.500  0.649-  69 2.96  72 2.96  76 2.96  53 2.96  56 2.96  57 2.96  77 2.96  74 2.96
                            80 2.96
  74  0.250  0.500  0.649-  70 2.96  54 2.96  75 2.96  69 2.96  53 2.96  78 2.96  58 2.96  77 2.96
                            73 2.96
  75  0.500  0.500  0.649-  74 2.96  70 2.96  71 2.96  54 2.96  55 2.96  59 2.96  78 2.96  79 2.96
                            76 2.96
  76  0.750  0.500  0.649-  72 2.96  56 2.96  71 2.96  73 2.96  55 2.96  80 2.96  60 2.96  79 2.96
                            75 2.96
  77  0.125  0.750  0.649-  78 2.96  58 2.96  57 2.96  66 2.96  65 2.96  61 2.96  74 2.96  73 2.96
                            80 2.96
  78  0.375  0.750  0.649-  58 2.96  66 2.96  77 2.96  59 2.96  67 2.96  74 2.96  62 2.96  75 2.96
                            79 2.96
  79  0.625  0.750  0.649-  80 2.96  60 2.96  59 2.96  68 2.96  67 2.96  63 2.96  76 2.96  75 2.96
                            78 2.96
  80  0.875  0.750  0.649-  60 2.96  68 2.96  79 2.96  57 2.96  65 2.96  76 2.96  64 2.96  73 2.96
                            77 2.96
 
  LATTYP: Found a simple orthorhombic cell.
 ALAT       =    10.2485702616
 B/A-ratio  =     1.1547005993
 C/A-ratio  =     5.5528993360
  
  Lattice vectors:
  
 A1 = (   0.0000000000, -10.2485702616,   0.0000000000)
 A2 = ( -11.8340302229,   0.0000000000,   0.0000000000)
 A3 = (   0.0000000000,   0.0000000000, -56.9092790000)
 Subroutine PRICEL returns:
 Original cell was already a primitive cell.
 

Analysis of symmetry for initial positions (statically):

 Routine SETGRP: Setting up the symmetry group for a 
 simple orthorhombic supercell.


 Subroutine GETGRP returns: Found  1 space group operations
 (whereof  1 operations were pure point group operations)
 out of a pool of  8 trial point group operations.


The static configuration has the point symmetry C_1 .

Analysis of symmetry for dynamics (positions and initial velocities):

 Subroutine DYNSYM returns: Found  1 space group operations
 (whereof  1 operations were pure point group operations)
 out of a pool of  1 trial space group operations
 (whereof  1 operations were pure point group operations)
 and found also     1 'primitive' translations


The dynamic configuration has the point symmetry C_1 .
 
 
 KPOINTS: 2x2x1                                   

Automatic generation of k-mesh.
 
 Subroutine IBZKPT returns following result:
 ===========================================
 
 Found      2 irreducible k-points:
 
 Following reciprocal coordinates:
            Coordinates               Weight
  0.250000  0.250000  0.000000      2.000000
 -0.250000  0.250000  0.000000      2.000000
 
 Following cartesian coordinates:
            Coordinates               Weight
  0.021126  0.024394  0.000000      2.000000
 -0.021126  0.024394  0.000000      2.000000
 


--------------------------------------------------------------------------------------------------------




 Dimension of arrays:
   k-points           NKPTS =      2   k-points in BZ     NKDIM =      2   number of bands    NBANDS=    448
   number of dos      NEDOS =    301   number of ions     NIONS =     80
   non local maximal  LDIM  =      6   non local SUM 2l+1 LMDIM =     18
   total plane-waves  NPLWV = ******
   max r-space proj   IRMAX =   4455   max aug-charges    IRDMAX=  11920
   dimension x,y,z NGX =    84 NGY =   70 NGZ =  392
   dimension x,y,z NGXF=   140 NGYF=  120 NGZF=  630
   support grid    NGXF=   140 NGYF=  120 NGZF=  630
   ions per type =               6   8   2  64
 NGX,Y,Z   is equivalent  to a cutoff of  11.80, 11.35, 11.45 a.u.
 NGXF,Y,Z  is equivalent  to a cutoff of  19.67, 19.47, 18.40 a.u.


 I would recommend the setting:
   dimension x,y,z NGX =    81 NGY =   70 NGZ =  387
 SYSTEM =  check layer dependance                  
 POSCAR =    C H N Au                              

 Startparameter for this run:
   NWRITE =      3    write-flag & timer
   PREC   = high      normal or accurate (medium, high low for compatibility)
   ISTART =      0    job   : 0-new  1-cont  2-samecut
   ICHARG =      2    charge: 1-file 2-atom 10-const
   ISPIN  =      1    spin polarized calculation?
   LNONCOLLINEAR =      F non collinear calculations
   LSORBIT =      F    spin-orbit coupling
   INIWAV =      1    electr: 0-lowe 1-rand  2-diag
   LASPH  =      F    aspherical Exc in radial PAW
   METAGGA=      F    non-selfconsistent MetaGGA calc.

 Electronic Relaxation 1
   ENCUT  =  435.1 eV  31.98 Ry    5.65 a.u.  20.13 17.43 96.79*2*pi/ulx,y,z
   ENINI  =  435.1     initial cutoff
   ENAUG  =  644.9 eV  augmentation charge cutoff
   NELM   =     60;   NELMIN=  6; NELMDL=-12     # of ELM steps 
   EDIFF  = 0.1E-03   stopping-criterion for ELM
   LREAL  =      T    real-space projection
   LCOMPAT=      F    compatible to vasp.4.4
   GGA_COMPAT  = T    GGA compatible to vasp.4.4-vasp.4.6
   LMAXPAW     = -100 max onsite density
   LMAXMIX     =    2 max onsite mixed and CHGCAR
   VOSKOWN=      0    Vosko Wilk Nusair interpolation
   ROPT   =   -0.00040  -0.00040  -0.00040  -0.00040
 Ionic relaxation
   EDIFFG = 0.1E-02   stopping-criterion for IOM
   NSW    =      0    number of steps for IOM
   NBLOCK =      1;   KBLOCK =      1    inner block; outer block 
   IBRION =     -1    ionic relax: 0-MD 1-quasi-New 2-CG
   NFREE  =      0    steps in history (QN), initial steepest desc. (CG)
   ISIF   =      2    stress and relaxation
   IWAVPR =     10    prediction:  0-non 1-charg 2-wave 3-comb
   ISYM   =      2    0-nonsym 1-usesym 2-fastsym
   LCORR  =      T    Harris-Foulkes like correction to forces

   POTIM  = 0.5000    time-step for ionic-motion
   TEIN   =    0.0    initial temperature
   TEBEG  =    0.0;   TEEND  =   0.0 temperature during run
   SMASS  =  -3.00    Nose mass-parameter (am)
   estimated Nose-frequenzy (Omega)   =  0.10E-29 period in steps =****** mass=  -0.320E-26a.u.
   NPACO  =    256;   APACO  = 16.0  distance and # of slots for P.C.
   PSTRESS=    0.0 pullay stress

  Mass of Ions in am
   POMASS =  12.01  1.00 14.00196.97
  Ionic Valenz
   ZVAL   =   4.00  1.00  5.00 11.00
  Atomic Wigner-Seitz radii
   RWIGS  =  -1.00 -1.00 -1.00 -1.00
  virtual crystal weights 
   VCA    =   1.00  1.00  1.00  1.00
   NELECT =     746.0000    total number of electrons
   NUPDOWN=      -1.0000    fix difference up-down

 DOS related values:
   EMIN   =  10.00;   EMAX   =-10.00  energy-range for DOS
   EFERMI =   0.00
   ISMEAR =     1;   SIGMA  =   0.10  broadening in eV -4-tet -1-fermi 0-gaus

 Electronic relaxation 2 (details)
   IALGO  =     48    algorithm
   LDIAG  =      T    sub-space diagonalisation (order eigenvalues)
   LSUBROT=      T    optimize rotation matrix (better conditioning)
   TURBO    =      0    0=normal 1=particle mesh
   IRESTART =      0    0=no restart 2=restart with 2 vectors
   NREBOOT  =      0    no. of reboots
   NMIN     =      0    reboot dimension
   EREF     =   0.00    reference energy to select bands
   IMIX   =      4    mixing-type and parameters
     AMIX     =   0.40;   BMIX     =  2.00
     AMIX_MAG =   1.60;   BMIX_MAG =  2.00
     AMIN     =   0.10
     WC   =   100.;   INIMIX=   1;  MIXPRE=   1

 Intra band minimization:
   WEIMIN = 0.0000     energy-eigenvalue tresh-hold
   EBREAK =  0.56E-07  absolut break condition
   DEPER  =   0.30     relativ break condition  

   TIME   =   0.40     timestep for ELM

  volume/ion in A,a.u.               =      86.28       582.22
  Fermi-wavevector in a.u.,A,eV,Ry     =   0.779821  1.473647  8.273979  0.608120
  Thomas-Fermi vector in A             =   1.883004
 
 Write flags
   LWAVE  =      T    write WAVECAR
   LCHARG =      T    write CHGCAR
   LVTOT  =      F    write LOCPOT, total local potential
   LVHAR  =      T    write LOCPOT, Hartree potential only
   LELF   =      F    write electronic localiz. function (ELF)
   LORBIT =     11    0 simple, 1 ext, 2 COOP (PROOUT)


 Dipole corrections
   LMONO  =      F    monopole corrections only (constant potential shift)
   LDIPOL =      F    correct potential (dipole corrections)
   IDIPOL =      0    1-x, 2-y, 3-z, 4-all directions 
   EPSILON=  1.0000000 bulk dielectric constant

 Exchange correlation treatment:
   GGA     =    --    GGA type
   LEXCH   =     8    internal setting for exchange type
   VOSKOWN=      0    Vosko Wilk Nusair interpolation
   LHFCALC =     F    Hartree Fock is set to
   LHFONE  =     F    Hartree Fock one center treatment
   AEXX    =    0.0000 exact exchange contribution

 Linear response parameters
   LEPSILON=     F    determine dielectric tensor
   LRPA    =     F    only Hartree local field effects (RPA)
   LNABLA  =     F    use nabla operator in PAW spheres
   LVEL    =     F    velocity operator in full k-point grid
   LINTERFAST=   F  fast interpolation
   KINTER  =     0    interpolate to denser k-point grid
   CSHIFT  =0.1000    complex shift for real part using Kramers Kronig
   OMEGAMAX=  -1.0    maximum frequency
   RTIME   =    0.100 relaxation time in fs

 Orbital magnetization related:
   ORBITALMAG=     F  switch on orbital magnetization
   LCHIMAG   =     F  perturbation theory with respect to B field


 ----------------------------------------------------------------------------- 
|                                                                             |
|           W    W    AA    RRRRR   N    N  II  N    N   GGGG   !!!           |
|           W    W   A  A   R    R  NN   N  II  NN   N  G    G  !!!           |
|           W    W  A    A  R    R  N N  N  II  N N  N  G       !!!           |
|           W WW W  AAAAAA  RRRRR   N  N N  II  N  N N  G  GGG   !            |
|           WW  WW  A    A  R   R   N   NN  II  N   NN  G    G                |
|           W    W  A    A  R    R  N    N  II  N    N   GGGG   !!!           |
|                                                                             |
|      One of the lattice vectors is very long (>50 A), but AMIN is rather    |
|      large. This can spoil convergence since charge sloshing might occur    |
|      along the long lattice vector. If problems with convergence are        |
|      observed, try to decrease AMIN to a smaller values (e.g. 0.01).        |
|      Note: this warning only applies if the selfconsistency cycle is used.  |
|                                                                             |
 ----------------------------------------------------------------------------- 



--------------------------------------------------------------------------------------------------------


 Static calculation
 charge density and potential will be updated during run
 non-spin polarized calculation
 RMM-DIIS sequential band-by-band
 perform sub-space diagonalisation
    before iterative eigenvector-optimisation
 modified Broyden-mixing scheme, WC =      100.0
 initial mixing is a Kerker type mixing with AMIX =  0.4000 and BMIX =      2.0000
 Hartree-type preconditioning will be used
 using additional bands           75
 real space projection scheme for non local part
 use partial core corrections
 calculate Harris-corrections to forces 
   (improved forces if not selfconsistent)
 use gradient corrections 
 use of overlap-Matrix (Vanderbilt PP)
 Methfessel and Paxton  Order N= 1 SIGMA  =   0.10


--------------------------------------------------------------------------------------------------------


  energy-cutoff  :      435.10
  volume of cell :     6902.06
      direct lattice vectors                 reciprocal lattice vectors
    11.834030223  0.000000000  0.000000000     0.084502066  0.000000000  0.000000000
     0.000000000 10.248570262  0.000000000     0.000000000  0.097574586  0.000000000
     0.000000000  0.000000000 56.909279000     0.000000000  0.000000000  0.017571827

  length of vectors
    11.834030223 10.248570262 56.909279000     0.084502066  0.097574586  0.017571827


 
 k-points in units of 2pi/SCALE and weight: 2x2x1                                   
   0.02112552  0.02439365  0.00000000       0.500
  -0.02112552  0.02439365  0.00000000       0.500
 
 k-points in reciprocal lattice and weights: 2x2x1                                   
   0.25000000  0.25000000  0.00000000       0.500
  -0.25000000  0.25000000  0.00000000       0.500
 
 position of ions in fractional coordinates (direct lattice) 
   0.19170172  0.38378719  0.71006538
   0.30953521  0.38378719  0.71006538
   0.37087120  0.50103535  0.71006538
   0.30953732  0.61830371  0.70981757
   0.19170122  0.61835308  0.70981054
   0.13033920  0.50110443  0.71003375
   0.14598171  0.29122852  0.70989318
   0.35513835  0.29111358  0.70985450
   0.35518162  0.71089204  0.70938354
   0.14605565  0.71098200  0.70940640
   0.52652578  0.58282276  0.71543358
   0.52667772  0.41953130  0.71542474
   0.97419434  0.58296180  0.71503818
   0.97415952  0.41923184  0.71509795
   0.01179522  0.50100579  0.70871056
   0.48966936  0.50108648  0.70878791
   0.00000000  0.00000000  0.52122335
   0.25000004  0.00000000  0.52122335
   0.49999999  0.00000000  0.52122335
   0.75000003  0.00000000  0.52122335
   0.12500002  0.25000004  0.52122335
   0.37499997  0.25000004  0.52122335
   0.62500001  0.25000004  0.52122335
   0.87499996  0.25000004  0.52122335
   0.00000000  0.49999999  0.52122335
   0.25000004  0.49999999  0.52122335
   0.49999999  0.49999999  0.52122335
   0.75000003  0.49999999  0.52122335
   0.12500002  0.75000003  0.52122335
   0.37499997  0.75000003  0.52122335
   0.62500001  0.75000003  0.52122335
   0.87499996  0.75000003  0.52122335
   0.12500002  0.08333338  0.56367005
   0.37499997  0.08333338  0.56367005
   0.62500001  0.08333338  0.56367005
   0.87499996  0.08333338  0.56367005
   0.00000000  0.33333332  0.56367005
   0.25000004  0.33333332  0.56367005
   0.49999999  0.33333332  0.56367005
   0.75000003  0.33333332  0.56367005
   0.12500002  0.58333337  0.56367005
   0.37499997  0.58333337  0.56367005
   0.62500001  0.58333337  0.56367005
   0.87499996  0.58333337  0.56367005
   0.00000000  0.83333341  0.56367005
   0.25000004  0.83333341  0.56367005
   0.49999999  0.83333341  0.56367005
   0.75000003  0.83333341  0.56367005
   0.00000000  0.16666666  0.60611676
   0.25000004  0.16666666  0.60611676
   0.49999999  0.16666666  0.60611676
   0.75000003  0.16666666  0.60611676
   0.12500002  0.41666670  0.60611676
   0.37499997  0.41666670  0.60611676
   0.62500001  0.41666670  0.60611676
   0.87499996  0.41666670  0.60611676
   0.00000000  0.66666675  0.60611676
   0.25000004  0.66666675  0.60611676
   0.49999999  0.66666675  0.60611676
   0.75000003  0.66666675  0.60611676
   0.12500002  0.91666679  0.60611676
   0.37499997  0.91666679  0.60611676
   0.62500001  0.91666679  0.60611676
   0.87499996  0.91666679  0.60611676
   0.00000000  0.00000000  0.64856346
   0.25000004  0.00000000  0.64856346
   0.49999999  0.00000000  0.64856346
   0.75000003  0.00000000  0.64856346
   0.12500002  0.25000004  0.64856346
   0.37499997  0.25000004  0.64856346
   0.62500001  0.25000004  0.64856346
   0.87499996  0.25000004  0.64856346
   0.00000000  0.49999999  0.64856346
   0.25000004  0.49999999  0.64856346
   0.49999999  0.49999999  0.64856346
   0.75000003  0.49999999  0.64856346
   0.12500002  0.75000003  0.64856346
   0.37499997  0.75000003  0.64856346
   0.62500001  0.75000003  0.64856346
   0.87499996  0.75000003  0.64856346
 
 position of ions in cartesian coordinates  (Angst):
   2.26860400  3.93327000 40.40930900
   3.66304900  3.93327000 40.40930900
   4.38890100  5.13489600 40.40930900
   3.66307400  6.33672900 40.39520600
   2.26859800  6.33723500 40.39480600
   1.54243800  5.13560400 40.40750900
   1.72755200  2.98467600 40.39950900
   4.20271800  2.98349800 40.39730800
   4.20323000  7.28562700 40.37050600
   1.72842700  7.28654900 40.37180700
   6.23092200  5.97310000 40.71480900
   6.23272000  4.29959600 40.71430600
  11.52864522  5.97452500 40.69230700
  11.52823322  4.29652700 40.69570900
   0.13958500  5.13459300 40.33220700
   5.79476200  5.13542000 40.33660900
   0.00000000  0.00000000 29.66244500
   2.95850800  0.00000000 29.66244500
   5.91701500  0.00000000 29.66244500
   8.87552300  0.00000000 29.66244500
   1.47925400  2.56214300 29.66244500
   4.43776100  2.56214300 29.66244500
   7.39626900  2.56214300 29.66244500
  10.35477600  2.56214300 29.66244500
   0.00000000  5.12428500 29.66244500
   2.95850800  5.12428500 29.66244500
   5.91701500  5.12428500 29.66244500
   8.87552300  5.12428500 29.66244500
   1.47925400  7.68642800 29.66244500
   4.43776100  7.68642800 29.66244500
   7.39626900  7.68642800 29.66244500
  10.35477600  7.68642800 29.66244500
   1.47925400  0.85404800 32.07805600
   4.43776100  0.85404800 32.07805600
   7.39626900  0.85404800 32.07805600
  10.35477600  0.85404800 32.07805600
   0.00000000  3.41619000 32.07805600
   2.95850800  3.41619000 32.07805600
   5.91701500  3.41619000 32.07805600
   8.87552300  3.41619000 32.07805600
   1.47925400  5.97833300 32.07805600
   4.43776100  5.97833300 32.07805600
   7.39626900  5.97833300 32.07805600
  10.35477600  5.97833300 32.07805600
   0.00000000  8.54047600 32.07805600
   2.95850800  8.54047600 32.07805600
   5.91701500  8.54047600 32.07805600
   8.87552300  8.54047600 32.07805600
   0.00000000  1.70809500 34.49366800
   2.95850800  1.70809500 34.49366800
   5.91701500  1.70809500 34.49366800
   8.87552300  1.70809500 34.49366800
   1.47925400  4.27023800 34.49366800
   4.43776100  4.27023800 34.49366800
   7.39626900  4.27023800 34.49366800
  10.35477600  4.27023800 34.49366800
   0.00000000  6.83238100 34.49366800
   2.95850800  6.83238100 34.49366800
   5.91701500  6.83238100 34.49366800
   8.87552300  6.83238100 34.49366800
   1.47925400  9.39452400 34.49366800
   4.43776100  9.39452400 34.49366800
   7.39626900  9.39452400 34.49366800
  10.35477600  9.39452400 34.49366800
   0.00000000  0.00000000 36.90927900
   2.95850800  0.00000000 36.90927900
   5.91701500  0.00000000 36.90927900
   8.87552300  0.00000000 36.90927900
   1.47925400  2.56214300 36.90927900
   4.43776100  2.56214300 36.90927900
   7.39626900  2.56214300 36.90927900
  10.35477600  2.56214300 36.90927900
   0.00000000  5.12428500 36.90927900
   2.95850800  5.12428500 36.90927900
   5.91701500  5.12428500 36.90927900
   8.87552300  5.12428500 36.90927900
   1.47925400  7.68642800 36.90927900
   4.43776100  7.68642800 36.90927900
   7.39626900  7.68642800 36.90927900
  10.35477600  7.68642800 36.90927900
 


--------------------------------------------------------------------------------------------------------


 k-point  1 :  0.25000.25000.0000  plane waves:  142259
 k-point  2 :  -.25000.25000.0000  plane waves:  142259

 maximum and minimum number of plane-waves per node :    142259   142259

 maximum number of plane-waves:    142259
 maximum index in each direction: 
   IXMAX=   20   IYMAX=   17   IZMAX=   96
   IXMIN=  -20   IYMIN=  -17   IZMIN=  -96

 NGX is ok and might be reduce to  82
 NGY is ok and might be reduce to  70
 NGZ is ok and might be reduce to 386

 serial   3D FFT for wavefunctions
 parallel 3D FFT for charge:
    minimum data exchange during FFTs selected (reduces bandwidth)


 total amount of memory used by VASP on root node   239269. kBytes
========================================================================

   base      :      30000. kBytes
   nonlr-proj:      50549. kBytes
   fftplans  :      16659. kBytes
   grid      :     108662. kBytes
   one-center:       1244. kBytes
   wavefun   :      32155. kBytes
 
 Broyden mixing: mesh for mixing (old mesh)
   NGX = 41   NGY = 35   NGZ =193
  (NGX  =140   NGY  =120   NGZ  =630)
  gives a total of 276955 points

 initial charge density was supplied:
 charge density of overlapping atoms calculated
 number of electron     746.0000000 magnetization 
 keeping initial charge density in first step


--------------------------------------------------------------------------------------------------------


 Maximum index for non-local projection operator         4300
 Maximum index for augmentation-charges          778 (set IRDMAX)


--------------------------------------------------------------------------------------------------------


 First call to EWALD:  gamma=   0.093
 Maximum number of real-space cells 4x 5x 1
 Maximum number of reciprocal cells 2x 2x 7

    FEWALD:  cpu time    0.06: real time    0.06


----------------------------------------- Iteration    1(   1)  ---------------------------------------


    POTLOK:  cpu time    1.24: real time    1.24
    SETDIJ:  cpu time    0.03: real time    0.03
    EDDIAG:  cpu time   11.87: real time   11.88
  RMM-DIIS:  cpu time   17.17: real time   17.20
    ORTHCH:  cpu time    2.27: real time    2.28
       DOS:  cpu time    0.01: real time    0.01
    --------------------------------------------
      LOOP:  cpu time   32.59: real time   32.64

 eigenvalue-minimisations  :   896
 total energy-change (2. order) : 0.9702755E+04  (-0.1829914E+05)
 number of electron     746.0000000 magnetization 
 augmentation part      746.0000000 magnetization 

 Free energy of the ion-electron system (eV)
  ---------------------------------------------------
  alpha Z        PSCENC =      1197.69272052
  Ewald energy   TEWEN  =   1244284.65576032
  -1/2 Hartree   DENC   =  -1304216.28379375
  -exchange  EXHF       =         0.00000000
  -V(xc)+E(xc)   XCENC  =      1094.74535116
  PAW double counting   =     48298.12802410   -46811.33398025
  entropy T*S    EENTRO =         0.01256965
  eigenvalues    EBANDS =      5076.13539710
  atomic energy  EATOM  =     60779.00273994
  ---------------------------------------------------
  free energy    TOTEN  =      9702.75478879 eV

  energy without entropy =     9702.74221914  energy(sigma->0) =     9702.75059891


--------------------------------------------------------------------------------------------------------




 average (electrostatic) potential at core
  the test charge radii are     0.6991  0.5201  0.7089  1.2098
  (the norm of the test charge is              1.0000)
       1 -64.4841       2 -64.4863       3 -64.2915       4 -64.4864       5 -64.4851
       6 -64.2979       7 -44.9594       8 -44.9535       9 -44.9586      10 -44.9527
      11 -45.3324      12 -45.3506      13 -45.3468      14 -45.3493      15 -78.9192
      16 -78.8995      17 -52.6392      18 -52.6392      19 -52.6392      20 -52.6392
      21 -52.6392      22 -52.6392      23 -52.6392      24 -52.6392      25 -52.6393
      26 -52.6392      27 -52.6393      28 -52.6392      29 -52.6392      30 -52.6392
      31 -52.6392      32 -52.6392      33 -52.7368      34 -52.7368      35 -52.7368
      36 -52.7368      37 -52.7368      38 -52.7368      39 -52.7368      40 -52.7368
      41 -52.7368      42 -52.7368      43 -52.7368      44 -52.7368      45 -52.7368
      46 -52.7368      47 -52.7368      48 -52.7368      49 -52.7367      50 -52.7368
      51 -52.7367      52 -52.7367      53 -52.7368      54 -52.7368      55 -52.7367
      56 -52.7367      57 -52.7367      58 -52.7368      59 -52.7367      60 -52.7367
      61 -52.7367      62 -52.7367      63 -52.7367      64 -52.7367      65 -52.6391
      66 -52.6392      67 -52.6391      68 -52.6391      69 -52.6410      70 -52.6410
      71 -52.6392      72 -52.6392      73 -52.6417      74 -52.6452      75 -52.6417
      76 -52.6392      77 -52.6411      78 -52.6411      79 -52.6392      80 -52.6392
 
 
 
 E-fermi :  16.9734     XC(G=0):  -2.6093     alpha+bet : -1.7536


 k-point   1 :       0.2500    0.2500    0.0000
  band No.  band energies     occupation 
      1     -11.1500      2.00000
      2     -12.5785      2.00000
      3     -15.3791      2.00000
      4     -10.1176      2.00000
      5     -14.7888      2.00000
      6     -10.9628      2.00000
      7      -9.6314      2.00000
      8     -10.0445      2.00000
      9      -9.4041      2.00000
     10      -9.5030      2.00000
     11     -11.5896      2.00000
     12      -8.3256      2.00000
     13      -7.1260      2.00000
     14       2.0002      2.00000
     15      -7.2108      2.00000
     16      -8.2039      2.00000
     17      -7.8533      2.00000
     18      -6.9313      2.00000
     19      -4.8962      2.00000
     20      -6.0565      2.00000
     21      -5.3394      2.00000
     22      -5.0531      2.00000
     23      -4.1308      2.00000
     24      -4.2169      2.00000
     25      -4.0858      2.00000
     26      -5.0347      2.00000
     27      -3.3049      2.00000
     28      -4.6819      2.00000
     29      -3.4846      2.00000
     30      -3.8571      2.00000
     31      -2.5160      2.00000
     32      -2.9673      2.00000
     33      -2.2282      2.00000
     34      -2.3868      2.00000
     35      -2.3606      2.00000
     36      -2.5441      2.00000
     37      -0.6359      2.00000
     38      -2.5915      2.00000
     39      -1.3464      2.00000
     40      -2.3644      2.00000
     41      -2.0608      2.00000
     42      -2.0380      2.00000
     43      -0.3455      2.00000
     44      -0.0688      2.00000
     45      -2.3532      2.00000
     46      -1.6356      2.00000
     47      -0.9934      2.00000
     48      -0.9911      2.00000
     49      -0.6265      2.00000
     50      -0.5461      2.00000
     51       0.4794      2.00000
     52       0.3900      2.00000
     53      -0.9306      2.00000
     54       0.4149      2.00000
     55      -0.1368      2.00000
     56      -1.0879      2.00000
     57       0.3042      2.00000
     58      -0.4272      2.00000
     59      -0.1444      2.00000
     60       0.3402      2.00000
     61       0.3555      2.00000
     62       0.0852      2.00000
     63       0.5540      2.00000
     64       1.0374      2.00000
     65       0.1416      2.00000
     66       1.1452      2.00000
     67       0.9353      2.00000
     68       1.6497      2.00000
     69       0.9121      2.00000
     70       0.9771      2.00000
     71       1.6908      2.00000
     72       1.3864      2.00000
     73       1.2333      2.00000
     74       1.0820      2.00000
     75       1.9478      2.00000
     76       2.2820      2.00000
     77       1.4467      2.00000
     78       1.4704      2.00000
     79       1.5357      2.00000
     80       1.3935      2.00000
     81       2.1938      2.00000
     82       2.1087      2.00000
     83       2.2482      2.00000
     84       2.6086      2.00000
     85       2.3060      2.00000
     86       2.1672      2.00000
     87       2.9911      2.00000
     88       1.6852      2.00000
     89       2.6383      2.00000
     90       2.6219      2.00000
     91       2.4266      2.00000
     92       2.2216      2.00000
     93       2.1234      2.00000
     94       2.6605      2.00000
     95       2.6266      2.00000
     96       2.6790      2.00000
     97       2.7253      2.00000
     98       2.8218      2.00000
     99       2.8778      2.00000
    100       3.2582      2.00000
    101       2.8553      2.00000
    102       2.7368      2.00000
    103       3.4805      2.00000
    104       3.2103      2.00000
    105       3.0900      2.00000
    106       3.2981      2.00000
    107       3.5458      2.00000
    108       3.2766      2.00000
    109       3.0664      2.00000
    110       3.4017      2.00000
    111       3.1033      2.00000
    112       3.9591      2.00000
    113       3.6157      2.00000
    114       3.8987      2.00000
    115       3.9017      2.00000
    116       3.9612      2.00000
    117       4.1426      2.00000
    118       4.1696      2.00000
    119       3.9256      2.00000
    120       3.6563      2.00000
    121       3.9790      2.00000
    122       4.3780      2.00000
    123       4.6768      2.00000
    124       3.6421      2.00000
    125       3.8796      2.00000
    126       4.1891      2.00000
    127       4.3134      2.00000
    128       4.5726      2.00000
    129       4.5424      2.00000
    130       4.6184      2.00000
    131       5.1063      2.00000
    132       4.9580      2.00000
    133       4.8892      2.00000
    134       4.6472      2.00000
    135       4.9912      2.00000
    136       4.5714      2.00000
    137       5.2410      2.00000
    138       4.8999      2.00000
    139       5.1943      2.00000
    140       5.1929      2.00000
    141       5.2686      2.00000
    142       5.1907      2.00000
    143       5.4055      2.00000
    144       4.9132      2.00000
    145       5.0514      2.00000
    146       5.4250      2.00000
    147       5.1523      2.00000
    148       5.5327      2.00000
    149       5.6234      2.00000
    150       5.7416      2.00000
    151       5.4790      2.00000
    152       6.0040      2.00000
    153       5.8291      2.00000
    154       5.8800      2.00000
    155       5.9232      2.00000
    156       6.0187      2.00000
    157       6.2127      2.00000
    158       5.8490      2.00000
    159       6.1414      2.00000
    160       6.3592      2.00000
    161       6.8930      2.00000
    162       6.1789      2.00000
    163       6.6220      2.00000
    164       6.4639      2.00000
    165       6.5874      2.00000
    166       6.2265      2.00000
    167       6.3753      2.00000
    168       6.3961      2.00000
    169       6.8854      2.00000
    170       6.7619      2.00000
    171       6.4706      2.00000
    172       6.6850      2.00000
    173       6.9215      2.00000
    174       7.0032      2.00000
    175       6.4687      2.00000
    176       6.8581      2.00000
    177       7.1421      2.00000
    178       7.3859      2.00000
    179       7.0009      2.00000
    180       7.0969      2.00000
    181       7.1051      2.00000
    182       7.1946      2.00000
    183       6.7659      2.00000
    184       7.0899      2.00000
    185       7.5289      2.00000
    186       7.5068      2.00000
    187       7.2958      2.00000
    188       7.5982      2.00000
    189       7.5629      2.00000
    190       7.6569      2.00000
    191       7.8610      2.00000
    192       7.7066      2.00000
    193       7.7072      2.00000
    194       7.4767      2.00000
    195       7.5530      2.00000
    196       8.1137      2.00000
    197       7.7750      2.00000
    198       8.5001      2.00000
    199       8.1075      2.00000
    200       8.0916      2.00000
    201       7.9995      2.00000
    202       8.0199      2.00000
    203       8.5682      2.00000
    204       8.4933      2.00000
    205       8.0953      2.00000
    206       8.5928      2.00000
    207       8.3916      2.00000
    208       8.5550      2.00000
    209       8.5119      2.00000
    210       9.0161      2.00000
    211       8.7095      2.00000
    212       9.0232      2.00000
    213       8.8806      2.00000
    214       9.0075      2.00000
    215       8.9599      2.00000
    216       8.5772      2.00000
    217       9.1000      2.00000
    218       8.8628      2.00000
    219       8.8637      2.00000
    220       9.4179      2.00000
    221       9.1453      2.00000
    222       9.0614      2.00000
    223       9.2360      2.00000
    224       9.3533      2.00000
    225       9.4149      2.00000
    226       9.2950      2.00000
    227       9.7249      2.00000
    228       9.3043      2.00000
    229       9.3324      2.00000
    230       9.7829      2.00000
    231      10.0196      2.00000
    232       9.5386      2.00000
    233       9.5050      2.00000
    234       9.8102      2.00000
    235       9.5867      2.00000
    236       9.5787      2.00000
    237       9.6810      2.00000
    238       9.8399      2.00000
    239      10.0510      2.00000
    240      10.1257      2.00000
    241       9.6907      2.00000
    242      10.0659      2.00000
    243       9.9705      2.00000
    244      10.2866      2.00000
    245      10.2402      2.00000
    246      10.1425      2.00000
    247      10.2755      2.00000
    248      10.2336      2.00000
    249      10.5741      2.00000
    250      10.5339      2.00000
    251      10.3325      2.00000
    252      10.6866      2.00000
    253      10.6452      2.00000
    254      10.7827      2.00000
    255      10.6788      2.00000
    256      10.7645      2.00000
    257      10.9969      2.00000
    258      10.9385      2.00000
    259      10.8368      2.00000
    260      10.7900      2.00000
    261      11.0053      2.00000
    262      11.1481      2.00000
    263      11.4594      2.00000
    264      11.0742      2.00000
    265      11.3783      2.00000
    266      11.3708      2.00000
    267      11.7030      2.00000
    268      11.8784      2.00000
    269      11.3481      2.00000
    270      11.7219      2.00000
    271      11.4416      2.00000
    272      11.5505      2.00000
    273      11.6232      2.00000
    274      11.8515      2.00000
    275      11.7873      2.00000
    276      12.0871      2.00000
    277      12.1462      2.00000
    278      12.0575      2.00000
    279      11.8971      2.00000
    280      12.1205      2.00000
    281      12.5498      2.00000
    282      12.3486      2.00000
    283      12.1823      2.00000
    284      12.4464      2.00000
    285      11.9252      2.00000
    286      12.1482      2.00000
    287      12.3378      2.00000
    288      12.1849      2.00000
    289      12.5164      2.00000
    290      12.8141      2.00000
    291      12.5116      2.00000
    292      12.8684      2.00000
    293      12.9505      2.00000
    294      12.9807      2.00000
    295      12.8503      2.00000
    296      12.7784      2.00000
    297      13.0957      2.00000
    298      12.8091      2.00000
    299      13.0908      2.00000
    300      13.0462      2.00000
    301      13.0897      2.00000
    302      13.0771      2.00000
    303      13.3259      2.00000
    304      13.1319      2.00000
    305      13.4349      2.00000
    306      13.5583      2.00000
    307      13.0242      2.00000
    308      13.6955      2.00000
    309      13.5450      2.00000
    310      13.6554      2.00000
    311      13.6201      2.00000
    312      13.9182      2.00000
    313      13.9707      2.00000
    314      13.7867      2.00000
    315      14.0624      2.00000
    316      14.0048      2.00000
    317      14.2593      2.00000
    318      13.9048      2.00000
    319      13.9787      2.00000
    320      13.9445      2.00000
    321      13.9929      2.00000
    322      14.0662      2.00000
    323      14.0800      2.00000
    324      14.3860      2.00000
    325      14.5513      2.00000
    326      14.4398      2.00000
    327      14.5884      2.00000
    328      14.5033      2.00000
    329      14.5817      2.00000
    330      14.9304      2.00000
    331      14.7885      2.00000
    332      14.6000      2.00000
    333      14.5163      2.00000
    334      14.7784      2.00000
    335      14.6360      2.00000
    336      14.9030      2.00000
    337      15.1115      2.00000
    338      14.7120      2.00000
    339      15.3774      2.00000
    340      15.1874      2.00000
    341      15.0333      2.00000
    342      15.2405      2.00000
    343      15.4343      2.00000
    344      15.1323      2.00000
    345      15.0767      2.00000
    346      15.3406      2.00000
    347      15.6784      2.00000
    348      15.4715      2.00000
    349      15.6920      2.00000
    350      15.5550      2.00000
    351      15.5745      2.00000
    352      16.1924      2.00000
    353      15.9571      2.00000
    354      16.0976      2.00000
    355      15.7949      2.00000
    356      16.0971      2.00000
    357      16.1621      2.00000
    358      16.1199      2.00000
    359      16.1390      2.00000
    360      16.3683      2.00000
    361      16.0332      2.00000
    362      16.5644      2.00000
    363      16.4385      2.00000
    364      16.5505      2.00000
    365      16.6891      2.00044
    366      16.7804      2.01989
    367      16.6734      2.00019
    368      16.5860      2.00000
    369      17.2274     -0.00194
    370      16.4870      2.00000
    371      16.6799      2.00027
    372      16.6813      2.00029
    373      16.8173      2.04977
    374      16.8793      2.03594
    375      17.3600      0.00000
    376      17.2133     -0.00359
    377      17.2256     -0.00210
    378      17.4783      0.00000
    379      17.2882     -0.00008
    380      17.3548      0.00000
    381      17.2420     -0.00097
    382      17.2474     -0.00074
    383      17.6991      0.00000
    384      17.8250      0.00000
    385      17.1282     -0.05099
    386      17.6058      0.00000
    387      17.7609      0.00000
    388      17.8353      0.00000
    389      17.8120      0.00000
    390      18.1680      0.00000
    391      17.9530      0.00000
    392      18.4010      0.00000
    393      18.3403      0.00000
    394      18.5400      0.00000
    395      18.3134      0.00000
    396      18.3972      0.00000
    397      18.5104      0.00000
    398      18.7588      0.00000
    399      18.8787      0.00000
    400      18.4308      0.00000
    401      18.6507      0.00000
    402      18.4838      0.00000
    403      19.1125      0.00000
    404      18.9591      0.00000
    405      18.8883      0.00000
    406      19.0928      0.00000
    407      19.3636      0.00000
    408      19.0367      0.00000
    409      19.2390      0.00000
    410      19.4936      0.00000
    411      19.3524      0.00000
    412      19.2579      0.00000
    413      19.5784      0.00000
    414      19.2372      0.00000
    415      19.8981      0.00000
    416      19.7027      0.00000
    417      19.6798      0.00000
    418      19.9050      0.00000
    419      20.2728      0.00000
    420      19.8833      0.00000
    421      19.9127      0.00000
    422      20.3554      0.00000
    423      20.2713      0.00000
    424      20.2097      0.00000
    425      20.3510      0.00000
    426      20.5302      0.00000
    427      20.4996      0.00000
    428      20.5223      0.00000
    429      20.7322      0.00000
    430      20.9804      0.00000
    431      21.2289      0.00000
    432      20.9293      0.00000
    433      20.9918      0.00000
    434      21.0638      0.00000
    435      21.6654      0.00000
    436      21.3575      0.00000
    437      21.7426      0.00000
    438      21.6162      0.00000
    439      22.0987      0.00000
    440      21.6972      0.00000
    441      21.9271      0.00000
    442      22.0839      0.00000
    443      22.1258      0.00000
    444      22.4392      0.00000
    445      22.2500      0.00000
    446      22.3651      0.00000
    447      22.7085      0.00000
    448      23.1799      0.00000

 k-point   2 :      -0.2500    0.2500    0.0000
  band No.  band energies     occupation 
      1     -11.0296      2.00000
      2     -12.2575      2.00000
      3     -14.7114      2.00000
      4      -9.8434      2.00000
      5     -16.0002      2.00000
      6     -10.6002      2.00000
      7      -9.7110      2.00000
      8      -9.2535      2.00000
      9     -11.4394      2.00000
     10      -9.9582      2.00000
     11     -10.0815      2.00000
     12      -8.0460      2.00000
     13      -7.3691      2.00000
     14       1.9983      2.00000
     15       0.0199      2.00000
     16      -6.0514      2.00000
     17      -7.3507      2.00000
     18      -5.9378      2.00000
     19      -5.3692      2.00000
     20      -5.8093      2.00000
     21      -4.6304      2.00000
     22      -4.6722      2.00000
     23      -5.4316      2.00000
     24      -4.0164      2.00000
     25      -3.8726      2.00000
     26      -2.3052      2.00000
     27      -2.9300      2.00000
     28      -4.0168      2.00000
     29      -3.7507      2.00000
     30      -1.7179      2.00000
     31      -3.2339      2.00000
     32      -2.8620      2.00000
     33      -3.7838      2.00000
     34      -3.1217      2.00000
     35      -3.3210      2.00000
     36      -1.1470      2.00000
     37      -2.0341      2.00000
     38      -1.2385      2.00000
     39      -1.1196      2.00000
     40      -1.8077      2.00000
     41      -2.1759      2.00000
     42      -1.8026      2.00000
     43      -1.4871      2.00000
     44      -1.7376      2.00000
     45      -2.0751      2.00000
     46      -0.7694      2.00000
     47      -1.5387      2.00000
     48      -0.5683      2.00000
     49      -0.1066      2.00000
     50      -0.6409      2.00000
     51      -0.6673      2.00000
     52      -0.0147      2.00000
     53      -0.4165      2.00000
     54      -0.0046      2.00000
     55      -0.4839      2.00000
     56       0.3694      2.00000
     57      -0.7835      2.00000
     58      -0.4993      2.00000
     59       0.0922      2.00000
     60       0.1253      2.00000
     61       0.2424      2.00000
     62       0.1768      2.00000
     63       0.6406      2.00000
     64       1.6066      2.00000
     65       0.6154      2.00000
     66       0.4122      2.00000
     67       0.5888      2.00000
     68       0.8722      2.00000
     69       1.0552      2.00000
     70       0.9200      2.00000
     71       1.6612      2.00000
     72       1.3155      2.00000
     73       1.9951      2.00000
     74       0.3448      2.00000
     75       1.7034      2.00000
     76       1.0110      2.00000
     77       1.5606      2.00000
     78       2.2848      2.00000
     79       2.3951      2.00000
     80       2.0460      2.00000
     81       1.8878      2.00000
     82       1.8912      2.00000
     83       2.5323      2.00000
     84       2.2790      2.00000
     85       2.0396      2.00000
     86       2.7660      2.00000
     87       2.7835      2.00000
     88       2.4261      2.00000
     89       2.0647      2.00000
     90       2.3171      2.00000
     91       2.2463      2.00000
     92       2.1923      2.00000
     93       2.5287      2.00000
     94       2.5116      2.00000
     95       2.6857      2.00000
     96       2.3229      2.00000
     97       3.6839      2.00000
     98       2.7744      2.00000
     99       3.0674      2.00000
    100       3.6597      2.00000
    101       3.3027      2.00000
    102       3.0746      2.00000
    103       2.4459      2.00000
    104       3.1727      2.00000
    105       2.8793      2.00000
    106       3.9963      2.00000
    107       3.4616      2.00000
    108       3.6607      2.00000
    109       3.4628      2.00000
    110       3.5819      2.00000
    111       4.0005      2.00000
    112       3.5806      2.00000
    113       3.3867      2.00000
    114       3.4321      2.00000
    115       4.1000      2.00000
    116       3.6889      2.00000
    117       3.4123      2.00000
    118       4.3563      2.00000
    119       3.8893      2.00000
    120       4.4933      2.00000
    121       3.7150      2.00000
    122       4.4728      2.00000
    123       4.2721      2.00000
    124       3.9291      2.00000
    125       4.3078      2.00000
    126       3.8846      2.00000
    127       4.6644      2.00000
    128       4.2469      2.00000
    129       4.5991      2.00000
    130       3.9870      2.00000
    131       4.3855      2.00000
    132       4.2437      2.00000
    133       4.3268      2.00000
    134       5.0621      2.00000
    135       4.6153      2.00000
    136       4.9878      2.00000
    137       4.8231      2.00000
    138       5.2727      2.00000
    139       4.9461      2.00000
    140       4.9021      2.00000
    141       5.3002      2.00000
    142       5.3080      2.00000
    143       5.2300      2.00000
    144       5.1706      2.00000
    145       4.9980      2.00000
    146       5.3269      2.00000
    147       5.3877      2.00000
    148       5.5631      2.00000
    149       5.9733      2.00000
    150       5.8446      2.00000
    151       5.7969      2.00000
    152       6.1420      2.00000
    153       5.5337      2.00000
    154       6.0799      2.00000
    155       5.5906      2.00000
    156       5.6101      2.00000
    157       6.3025      2.00000
    158       6.0609      2.00000
    159       5.9277      2.00000
    160       6.2975      2.00000
    161       6.1656      2.00000
    162       5.8978      2.00000
    163       6.3739      2.00000
    164       5.9166      2.00000
    165       6.4220      2.00000
    166       6.3485      2.00000
    167       6.7265      2.00000
    168       6.6425      2.00000
    169       6.2671      2.00000
    170       6.9898      2.00000
    171       6.4854      2.00000
    172       6.4895      2.00000
    173       6.8734      2.00000
    174       6.8449      2.00000
    175       6.8535      2.00000
    176       7.1170      2.00000
    177       6.7915      2.00000
    178       6.7210      2.00000
    179       7.0293      2.00000
    180       7.4436      2.00000
    181       6.8387      2.00000
    182       7.1135      2.00000
    183       7.4236      2.00000
    184       7.1514      2.00000
    185       7.4691      2.00000
    186       7.1566      2.00000
    187       7.6177      2.00000
    188       7.5954      2.00000
    189       7.7638      2.00000
    190       7.6074      2.00000
    191       7.8429      2.00000
    192       7.3703      2.00000
    193       7.7756      2.00000
    194       7.9422      2.00000
    195       7.6361      2.00000
    196       8.1423      2.00000
    197       7.8824      2.00000
    198       7.9986      2.00000
    199       8.2091      2.00000
    200       8.0906      2.00000
    201       8.2778      2.00000
    202       8.0112      2.00000
    203       8.1647      2.00000
    204       8.4683      2.00000
    205       8.5797      2.00000
    206       8.2522      2.00000
    207       8.2489      2.00000
    208       8.5377      2.00000
    209       8.4822      2.00000
    210       8.7240      2.00000
    211       8.8490      2.00000
    212       8.5319      2.00000
    213       8.6982      2.00000
    214       8.8764      2.00000
    215       8.6639      2.00000
    216       8.7879      2.00000
    217       8.7607      2.00000
    218       8.8639      2.00000
    219       9.1397      2.00000
    220       9.2478      2.00000
    221       8.9105      2.00000
    222       8.9840      2.00000
    223       9.3262      2.00000
    224       8.8815      2.00000
    225       9.4967      2.00000
    226       9.4898      2.00000
    227       9.3746      2.00000
    228       9.4083      2.00000
    229       9.4213      2.00000
    230       9.5938      2.00000
    231       9.3511      2.00000
    232       9.4971      2.00000
    233       9.5056      2.00000
    234       9.9527      2.00000
    235      10.0498      2.00000
    236       9.9110      2.00000
    237       9.7073      2.00000
    238       9.6244      2.00000
    239       9.9371      2.00000
    240       9.9945      2.00000
    241      10.0264      2.00000
    242       9.7155      2.00000
    243      10.0675      2.00000
    244      10.5763      2.00000
    245      10.0438      2.00000
    246      10.1350      2.00000
    247      10.5075      2.00000
    248      10.6207      2.00000
    249      10.6809      2.00000
    250      10.8604      2.00000
    251      10.7936      2.00000
    252      10.6720      2.00000
    253      10.5587      2.00000
    254      11.0903      2.00000
    255      11.0665      2.00000
    256      10.9375      2.00000
    257      10.8627      2.00000
    258      11.1791      2.00000
    259      10.8528      2.00000
    260      10.7835      2.00000
    261      11.0338      2.00000
    262      11.1355      2.00000
    263      11.3222      2.00000
    264      11.0713      2.00000
    265      11.3666      2.00000
    266      11.4377      2.00000
    267      11.3989      2.00000
    268      11.3604      2.00000
    269      11.5014      2.00000
    270      11.3602      2.00000
    271      11.5328      2.00000
    272      11.0575      2.00000
    273      11.6482      2.00000
    274      11.9938      2.00000
    275      11.8404      2.00000
    276      11.7973      2.00000
    277      12.0270      2.00000
    278      11.5519      2.00000
    279      11.9536      2.00000
    280      11.8595      2.00000
    281      12.3368      2.00000
    282      12.0561      2.00000
    283      12.2658      2.00000
    284      12.3879      2.00000
    285      12.4987      2.00000
    286      11.9660      2.00000
    287      12.5767      2.00000
    288      12.3106      2.00000
    289      12.2085      2.00000
    290      12.6077      2.00000
    291      12.8963      2.00000
    292      12.6565      2.00000
    293      12.9884      2.00000
    294      12.9189      2.00000
    295      13.0193      2.00000
    296      12.4675      2.00000
    297      12.8813      2.00000
    298      12.8068      2.00000
    299      13.2098      2.00000
    300      13.1381      2.00000
    301      13.3250      2.00000
    302      12.9915      2.00000
    303      13.0326      2.00000
    304      13.5818      2.00000
    305      13.2408      2.00000
    306      13.5211      2.00000
    307      13.3073      2.00000
    308      13.1920      2.00000
    309      13.4691      2.00000
    310      13.6951      2.00000
    311      13.8378      2.00000
    312      13.5777      2.00000
    313      14.0210      2.00000
    314      13.9144      2.00000
    315      13.6908      2.00000
    316      13.9007      2.00000
    317      13.8551      2.00000
    318      13.6045      2.00000
    319      14.0509      2.00000
    320      13.8858      2.00000
    321      14.3607      2.00000
    322      14.4051      2.00000
    323      14.4121      2.00000
    324      14.0032      2.00000
    325      14.5189      2.00000
    326      14.2641      2.00000
    327      14.7504      2.00000
    328      14.6468      2.00000
    329      14.7368      2.00000
    330      14.3666      2.00000
    331      14.8941      2.00000
    332      14.9420      2.00000
    333      14.8326      2.00000
    334      14.6180      2.00000
    335      14.6770      2.00000
    336      15.3642      2.00000
    337      14.7552      2.00000
    338      15.0881      2.00000
    339      15.3478      2.00000
    340      15.3789      2.00000
    341      15.2129      2.00000
    342      14.9865      2.00000
    343      15.5743      2.00000
    344      15.6093      2.00000
    345      15.4910      2.00000
    346      15.5046      2.00000
    347      15.8749      2.00000
    348      15.4409      2.00000
    349      15.8621      2.00000
    350      15.3913      2.00000
    351      16.0906      2.00000
    352      15.4280      2.00000
    353      15.6380      2.00000
    354      15.9110      2.00000
    355      16.2049      2.00000
    356      15.9705      2.00000
    357      16.1096      2.00000
    358      15.9604      2.00000
    359      15.8907      2.00000
    360      16.0775      2.00000
    361      16.2853      2.00000
    362      16.2707      2.00000
    363      16.7031      2.00089
    364      16.6777      2.00024
    365      16.7025      2.00086
    366      16.8145      2.04713
    367      16.6848      2.00035
    368      16.4330      2.00000
    369      16.7933      2.02878
    370      16.7908      2.02690
    371      16.8506      2.07091
    372      16.5916      2.00000
    373      17.1111     -0.06520
    374      16.9875      0.76375
    375      17.0163      0.34279
    376      16.9854      0.79906
    377      17.3542      0.00000
    378      17.1190     -0.05913
    379      17.2127     -0.00369
    380      17.5395      0.00000
    381      17.3947      0.00000
    382      17.6172      0.00000
    383      17.6300      0.00000
    384      17.5919      0.00000
    385      17.9535      0.00000
    386      17.8930      0.00000
    387      18.1284      0.00000
    388      17.6768      0.00000
    389      18.0141      0.00000
    390      18.0899      0.00000
    391      18.1371      0.00000
    392      18.2309      0.00000
    393      18.2937      0.00000
    394      18.3702      0.00000
    395      18.2688      0.00000
    396      18.8776      0.00000
    397      18.2355      0.00000
    398      18.6292      0.00000
    399      18.9425      0.00000
    400      18.7396      0.00000
    401      18.6203      0.00000
    402      18.5861      0.00000
    403      18.6081      0.00000
    404      19.0263      0.00000
    405      18.8788      0.00000
    406      19.4676      0.00000
    407      19.0266      0.00000
    408      19.1654      0.00000
    409      19.1252      0.00000
    410      19.2392      0.00000
    411      19.4242      0.00000
    412      19.7503      0.00000
    413      19.5712      0.00000
    414      19.7554      0.00000
    415      19.4842      0.00000
    416      20.1931      0.00000
    417      19.6463      0.00000
    418      19.9039      0.00000
    419      19.9006      0.00000
    420      20.0993      0.00000
    421      20.5863      0.00000
    422      20.0577      0.00000
    423      20.1799      0.00000
    424      20.3368      0.00000
    425      20.5688      0.00000
    426      20.5695      0.00000
    427      20.6774      0.00000
    428      20.5846      0.00000
    429      20.7744      0.00000
    430      21.1055      0.00000
    431      20.8059      0.00000
    432      20.8506      0.00000
    433      21.0372      0.00000
    434      21.5653      0.00000
    435      21.1203      0.00000
    436      21.5409      0.00000
    437      21.8632      0.00000
    438      21.2552      0.00000
    439      21.7907      0.00000
    440      21.6243      0.00000
    441      22.1482      0.00000
    442      21.8686      0.00000
    443      22.3153      0.00000
    444      22.1086      0.00000
    445      22.3369      0.00000
    446      22.2930      0.00000
    447      22.6247      0.00000
    448      22.5551      0.00000


--------------------------------------------------------------------------------------------------------


 soft charge-density along one line, spin component           1
         0         1         2         3         4         5         6         7         8         9
 total charge-density along one line
 
 pseudopotential strength for first ion, spin component:           1
 10.576   0.030   0.003   0.000   0.002  -0.002   0.000  -0.002
  0.030  -0.001   0.000   0.000   0.000   0.000   0.000   0.000
  0.003   0.000  -4.715   0.000   0.002  -0.003   0.000   0.000
  0.000   0.000   0.000  -4.681   0.000   0.000   0.001   0.000
[...]
   0.939E+00 0.702E+00 0.380E+04   -.930E+00 -.723E+00 -.380E+04   -.746E-02 0.275E-01 0.281E+00   -.103E-03 -.159E-03 -.165E-02
   0.139E+01 -.145E-01 0.380E+04   -.138E+01 -.674E-02 -.380E+04   -.615E-02 0.267E-01 0.291E+00   -.789E-04 0.306E-04 -.165E-02
   0.365E-02 -.214E-01 0.380E+04   -.371E-02 -.764E-02 -.380E+04   -.112E-04 0.346E-01 0.277E+00   0.580E-05 0.526E-04 -.162E-02
   -.139E+01 -.146E-01 0.380E+04   0.138E+01 -.675E-02 -.380E+04   0.601E-02 0.269E-01 0.291E+00   0.709E-04 0.313E-04 -.166E-02
   -.338E-02 -.135E-01 0.380E+04   0.334E-02 -.590E-02 -.380E+04   0.507E-04 0.246E-01 0.297E+00   0.110E-06 0.247E-04 -.173E-02
   0.927E+00 -.895E+00 0.380E+04   -.936E+00 0.826E+00 -.380E+04   0.884E-02 0.664E-01 0.265E+00   -.866E-04 0.496E-04 -.173E-02
   -.923E+00 -.895E+00 0.380E+04   0.931E+00 0.826E+00 -.380E+04   -.888E-02 0.668E-01 0.265E+00   0.893E-04 0.464E-04 -.173E-02
   -.942E+00 -.757E+00 0.380E+04   0.936E+00 0.722E+00 -.380E+04   0.714E-02 0.345E-01 0.268E+00   0.814E-04 0.139E-03 -.165E-02
   0.937E+00 -.757E+00 0.380E+04   -.931E+00 0.722E+00 -.380E+04   -.708E-02 0.342E-01 0.269E+00   -.818E-04 0.144E-03 -.167E-02
   0.311E+01 0.185E+01 0.144E+04   -.310E+01 -.185E+01 -.144E+04   -.662E-02 0.135E-02 -.189E+00   -.577E-04 -.432E-04 -.311E-02
   -.309E+01 0.186E+01 0.144E+04   0.308E+01 -.185E+01 -.144E+04   0.662E-02 0.988E-03 -.189E+00   0.600E-04 -.486E-04 -.311E-02
   -.309E+01 0.147E+01 0.144E+04   0.309E+01 -.149E+01 -.144E+04   -.139E-02 0.295E-01 -.187E+00   0.601E-04 -.612E-04 -.331E-02
   0.307E+01 0.147E+01 0.144E+04   -.308E+01 -.149E+01 -.144E+04   0.142E-02 0.298E-01 -.187E+00   -.577E-04 -.609E-04 -.332E-02
   0.498E+01 0.299E+01 0.144E+04   -.498E+01 -.297E+01 -.144E+04   0.349E-02 -.498E-02 -.232E+00   -.570E-05 -.333E-04 -.323E-02
   0.127E-01 0.343E+01 0.145E+04   -.127E-01 -.343E+01 -.145E+04   0.208E-04 0.828E-02 -.217E+00   -.235E-05 0.486E-04 -.319E-02
   -.498E+01 0.299E+01 0.144E+04   0.498E+01 -.298E+01 -.144E+04   -.336E-02 -.481E-02 -.233E+00   0.458E-05 -.259E-04 -.323E-02
   -.122E-01 0.253E+01 0.144E+04   0.124E-01 -.252E+01 -.144E+04   -.155E-03 -.313E-02 -.209E+00   0.123E-06 -.106E-03 -.328E-02
   0.364E+01 -.190E+01 0.145E+04   -.365E+01 0.187E+01 -.145E+04   0.855E-02 0.384E-01 -.261E+00   0.320E-04 0.350E-05 -.324E-02
   -.362E+01 -.190E+01 0.145E+04   0.363E+01 0.187E+01 -.145E+04   -.848E-02 0.384E-01 -.261E+00   -.321E-04 0.544E-05 -.324E-02
   -.366E+01 -.153E+01 0.144E+04   0.365E+01 0.150E+01 -.144E+04   0.434E-02 0.281E-01 -.227E+00   -.186E-04 0.576E-04 -.326E-02
   0.364E+01 -.153E+01 0.144E+04   -.364E+01 0.150E+01 -.144E+04   -.442E-02 0.281E-01 -.226E+00   0.182E-04 0.582E-04 -.326E-02
   0.454E+01 -.300E+01 0.144E+04   -.454E+01 0.296E+01 -.144E+04   -.512E-02 0.355E-01 -.203E+00   -.606E-04 0.243E-04 -.324E-02
   0.123E-01 -.345E+01 0.145E+04   -.122E-01 0.340E+01 -.145E+04   -.120E-03 0.355E-01 -.184E+00   -.164E-05 -.430E-04 -.311E-02
   -.454E+01 -.300E+01 0.144E+04   0.454E+01 0.296E+01 -.144E+04   0.524E-02 0.357E-01 -.202E+00   0.544E-04 0.213E-04 -.324E-02
   -.117E-01 -.253E+01 0.144E+04   0.117E-01 0.250E+01 -.144E+04   0.275E-04 0.246E-01 -.202E+00   0.222E-05 0.763E-04 -.335E-02
   0.155E+02 0.127E+02 -.934E+03   -.155E+02 -.127E+02 0.934E+03   0.386E-02 -.763E-03 0.238E+00   -.747E-04 -.154E-03 -.246E-02
   0.421E-01 0.158E+02 -.919E+03   -.422E-01 -.158E+02 0.919E+03   0.745E-04 -.164E-01 0.191E+00   -.820E-05 -.166E-03 -.257E-02
   -.155E+02 0.127E+02 -.934E+03   0.155E+02 -.127E+02 0.934E+03   -.384E-02 -.629E-03 0.238E+00   0.820E-04 -.150E-03 -.246E-02
   -.409E-01 0.958E+01 -.949E+03   0.411E-01 -.957E+01 0.948E+03   -.170E-03 -.169E-01 0.215E+00   0.129E-05 -.204E-03 -.226E-02
   0.140E+02 0.914E+01 -.898E+03   -.140E+02 -.916E+01 0.898E+03   -.354E-02 0.111E-01 0.213E+00   -.376E-04 -.969E-04 -.270E-02
   -.140E+02 0.915E+01 -.898E+03   0.140E+02 -.916E+01 0.898E+03   0.432E-02 0.114E-01 0.213E+00   0.340E-04 -.970E-04 -.270E-02
   -.142E+02 0.645E+01 -.928E+03   0.142E+02 -.643E+01 0.928E+03   -.202E-01 -.264E-01 0.170E+00   0.784E-04 -.860E-04 -.253E-02
   0.141E+02 0.645E+01 -.928E+03   -.141E+02 -.642E+01 0.928E+03   0.197E-01 -.269E-01 0.169E+00   -.737E-04 -.851E-04 -.253E-02
   0.188E+02 -.131E+02 -.919E+03   -.188E+02 0.131E+02 0.919E+03   0.840E-02 -.352E-01 0.206E+00   -.550E-04 0.163E-03 -.260E-02
   0.462E-01 -.162E+02 -.899E+03   -.463E-01 0.163E+02 0.899E+03   0.527E-04 -.518E-01 0.209E+00   -.212E-06 0.172E-03 -.270E-02
   -.188E+02 -.131E+02 -.919E+03   0.188E+02 0.131E+02 0.918E+03   -.842E-02 -.357E-01 0.207E+00   0.514E-04 0.168E-03 -.260E-02
   -.468E-01 -.981E+01 -.938E+03   0.470E-01 0.981E+01 0.938E+03   -.270E-03 -.120E-01 0.193E+00   0.296E-05 0.157E-03 -.244E-02
   0.103E+02 -.868E+01 -.930E+03   -.103E+02 0.871E+01 0.930E+03   0.257E-02 -.321E-01 0.216E+00   -.233E-04 0.953E-04 -.251E-02
   -.102E+02 -.869E+01 -.930E+03   0.102E+02 0.872E+01 0.930E+03   -.257E-02 -.323E-01 0.216E+00   0.208E-04 0.864E-04 -.252E-02
   -.102E+02 -.610E+01 -.948E+03   0.102E+02 0.613E+01 0.948E+03   0.445E-02 -.177E-01 0.208E+00   0.116E-03 0.114E-03 -.226E-02
   0.101E+02 -.610E+01 -.948E+03   -.101E+02 0.612E+01 0.948E+03   -.436E-02 -.174E-01 0.207E+00   -.109E-03 0.118E-03 -.226E-02
   0.398E+02 -.471E+00 -.335E+04   -.398E+02 0.494E+00 0.335E+04   0.124E-01 -.270E-01 -.399E+00   -.296E-03 0.193E-04 -.723E-03
   0.128E+00 -.743E+00 -.332E+04   -.128E+00 0.762E+00 0.332E+04   -.424E-05 -.262E-01 -.414E+00   -.108E-05 -.383E-05 -.749E-03
   -.398E+02 -.473E+00 -.335E+04   0.398E+02 0.496E+00 0.335E+04   -.125E-01 -.269E-01 -.399E+00   0.293E-03 0.103E-04 -.712E-03
   -.116E+00 -.251E+00 -.337E+04   0.116E+00 0.274E+00 0.337E+04   0.245E-04 -.297E-01 -.378E+00   0.742E-05 0.115E-04 -.714E-03
   0.440E+02 0.840E+02 -.325E+04   -.441E+02 -.841E+02 0.325E+04   0.578E-01 0.349E-01 -.246E+00   0.153E-03 0.370E-03 0.457E-03
   -.438E+02 0.841E+02 -.325E+04   0.438E+02 -.842E+02 0.325E+04   -.585E-01 0.359E-01 -.244E+00   -.156E-03 0.374E-03 0.462E-03
   -.425E+02 0.470E+02 -.333E+04   0.425E+02 -.470E+02 0.333E+04   0.674E-02 -.344E-01 -.348E+00   0.316E-04 -.773E-04 -.659E-03
   0.423E+02 0.469E+02 -.333E+04   -.423E+02 -.469E+02 0.333E+04   -.666E-02 -.348E-01 -.350E+00   -.268E-04 -.873E-04 -.674E-03
   0.854E+02 0.720E+00 -.321E+04   -.854E+02 -.688E+00 0.321E+04   -.105E-01 -.287E-01 0.249E-01   0.305E-03 0.912E-05 0.679E-04
   0.164E+00 0.111E+01 -.312E+04   -.165E+00 -.108E+01 0.312E+04   0.899E-03 -.333E-01 0.605E-01   -.214E-05 0.401E-05 0.871E-03
   -.853E+02 0.724E+00 -.321E+04   0.853E+02 -.692E+00 0.321E+04   0.123E-01 -.284E-01 0.309E-01   -.296E-03 0.537E-05 0.874E-04
   -.217E+00 0.356E+00 -.331E+04   0.217E+00 -.328E+00 0.331E+04   0.386E-04 -.256E-01 -.263E+00   -.965E-05 0.118E-04 -.324E-03
   0.444E+02 -.843E+02 -.324E+04   -.445E+02 0.844E+02 0.324E+04   0.581E-01 -.979E-01 -.233E+00   0.159E-03 -.345E-03 0.456E-03
   -.442E+02 -.843E+02 -.324E+04   0.443E+02 0.844E+02 0.324E+04   -.586E-01 -.988E-01 -.231E+00   -.161E-03 -.338E-03 0.468E-03
   -.428E+02 -.471E+02 -.333E+04   0.428E+02 0.471E+02 0.333E+04   0.832E-02 -.295E-01 -.337E+00   0.328E-04 0.897E-04 -.656E-03
   0.426E+02 -.470E+02 -.333E+04   -.426E+02 0.470E+02 0.333E+04   -.825E-02 -.289E-01 -.340E+00   -.305E-04 0.101E-03 -.667E-03
 -----------------------------------------------------------------------------------------------
   0.312E+00 -.476E-01 -.291E+02   -.178E-12 -.739E-12 -.546E-11   -.313E+00 0.748E-01 0.292E+02   0.294E-04 0.628E-04 -.118E+00
 
 
 POSITION                                       TOTAL-FORCE (eV/Angst)
 -----------------------------------------------------------------------------------
      2.26860      3.93327     40.40931         0.006569     -0.049861      0.016825
      3.66305      3.93327     40.40931        -0.014844     -0.079783      0.018655
      4.38890      5.13490     40.40931         0.089871      0.006432      0.028014
      3.66307      6.33673     40.39521        -0.014768      0.067147      0.016499
      2.26860      6.33724     40.39481         0.013073      0.080529      0.015530
      1.54244      5.13560     40.40751        -0.053880     -0.027469      0.037771
      1.72755      2.98468     40.39951         0.035811     -0.042029     -0.000269
      4.20272      2.98350     40.39731        -0.033441     -0.028448      0.006804
      4.20323      7.28563     40.37051        -0.031445      0.037301      0.008451
      1.72843      7.28655     40.37181         0.038576      0.028756      0.002091
      6.23092      5.97310     40.71481         0.021147      0.025599     -0.093310
      6.23272      4.29960     40.71431         0.032924     -0.059025     -0.074455
     11.52865      5.97453     40.69231        -0.024542      0.032376     -0.072356
     11.52823      4.29653     40.69571        -0.018417     -0.037490     -0.067286
      0.13959      5.13459     40.33221         0.178651      0.015068      0.034439
      5.79476      5.13542     40.33661        -0.227263      0.032548      0.069430
      0.00000      0.00000     29.66244         0.000853      0.003951      0.080931
      2.95851      0.00000     29.66244        -0.000041      0.004546      0.084103
      5.91701      0.00000     29.66244        -0.000738      0.004023      0.080884
      8.87552      0.00000     29.66244        -0.000018     -0.000775      0.082606
      1.47925      2.56214     29.66244        -0.000510      0.004133      0.069927
      4.43776      2.56214     29.66244         0.000625      0.004126      0.069910
      7.39627      2.56214     29.66244        -0.002238      0.006039      0.072117
     10.35478      2.56214     29.66244         0.002198      0.006109      0.072198
      0.00000      5.12429     29.66244        -0.000832      0.005195      0.054466
      2.95851      5.12429     29.66244        -0.000046      0.005273      0.046286
      5.91701      5.12429     29.66244         0.000913      0.005149      0.054247
      8.87552      5.12429     29.66244         0.000020      0.004920      0.060345
      1.47925      7.68643     29.66244         0.000129     -0.002592      0.062589
      4.43776      7.68643     29.66244        -0.000113     -0.002589      0.062625
      7.39627      7.68643     29.66244         0.000489     -0.000798      0.062938
     10.35478      7.68643     29.66244        -0.000480     -0.000800      0.062966
      1.47925      0.85405     32.07806         0.001253      0.010139      0.063382
      4.43776      0.85405     32.07806        -0.001163      0.010109      0.063390
      7.39627      0.85405     32.07806        -0.000031      0.010483      0.061973
     10.35478      0.85405     32.07806        -0.000002      0.010512      0.061916
      0.00000      3.41619     32.07806         0.003932      0.005495      0.067623
      2.95851      3.41619     32.07806         0.000022      0.009508      0.075589
      5.91701      3.41619     32.07806        -0.003906      0.005440      0.067713
      8.87552      3.41619     32.07806         0.000007      0.011979      0.071044
      1.47925      5.97833     32.07806        -0.000374      0.006209      0.061043
      4.43776      5.97833     32.07806         0.000447      0.006284      0.061102
      7.39627      5.97833     32.07806         0.000458      0.001427      0.059960
     10.35478      5.97833     32.07806        -0.000482      0.001387      0.059942
      0.00000      8.54048     32.07806         0.000369     -0.009341      0.072674
      2.95851      8.54048     32.07806         0.000037     -0.005274      0.069812
      5.91701      8.54048     32.07806        -0.000387     -0.009395      0.072662
      8.87552      8.54048     32.07806         0.000043     -0.001351      0.069859
      0.00000      1.70810     34.49367         0.000738     -0.005472     -0.077453
      2.95851      1.70810     34.49367         0.000027     -0.004553     -0.081193
      5.91701      1.70810     34.49367        -0.000751     -0.005404     -0.077347
      8.87552      1.70810     34.49367         0.000040     -0.007702     -0.077350
      1.47925      4.27024     34.49367        -0.008589     -0.001754     -0.045099
      4.43776      4.27024     34.49367         0.008485     -0.001865     -0.045047
      7.39627      4.27024     34.49367         0.001775     -0.004347     -0.067935
     10.35478      4.27024     34.49367        -0.001432     -0.004246     -0.068171
      0.00000      6.83238     34.49367         0.000300     -0.009224     -0.057199
      2.95851      6.83238     34.49367        -0.000074      0.005202     -0.062626
      5.91701      6.83238     34.49367        -0.000200     -0.008941     -0.056936
      8.87552      6.83238     34.49367        -0.000041     -0.007506     -0.071891
      1.47925      9.39452     34.49367         0.003244     -0.004156     -0.082480
      4.43776      9.39452     34.49367        -0.003260     -0.004228     -0.082387
      7.39627      9.39452     34.49367         0.002117      0.003272     -0.082126
     10.35478      9.39452     34.49367        -0.002074      0.003325     -0.082151
      0.00000      0.00000     36.90928         0.000177     -0.004532     -0.029105
      2.95851      0.00000     36.90928         0.000033     -0.007140     -0.033906
      5.91701      0.00000     36.90928        -0.000222     -0.004549     -0.029174
      8.87552      0.00000     36.90928         0.000114     -0.006711     -0.033628
      1.47925      2.56214     36.90928        -0.003352     -0.038160     -0.086321
      4.43776      2.56214     36.90928         0.003551     -0.037894     -0.086477
      7.39627      2.56214     36.90928         0.001622     -0.018419     -0.062653
     10.35478      2.56214     36.90928        -0.001603     -0.018332     -0.062317
      0.00000      5.12429     36.90928        -0.053419      0.003579     -0.003276
      2.95851      5.12429     36.90928         0.000518     -0.005237     -0.166908
      5.91701      5.12429     36.90928         0.053663      0.003634     -0.005930
      8.87552      5.12429     36.90928        -0.000012      0.002134     -0.090289
      1.47925      7.68643     36.90928        -0.007151      0.029739     -0.083100
      4.43776      7.68643     36.90928         0.007297      0.029478     -0.083176
      7.39627      7.68643     36.90928         0.005035      0.009451     -0.056221
     10.35478      7.68643     36.90928        -0.005012      0.009390     -0.055782
 -----------------------------------------------------------------------------------
    total drift:                               -0.001041      0.027194     -0.045551


--------------------------------------------------------------------------------------------------------



  FREE ENERGIE OF THE ION-ELECTRON SYSTEM (eV)
  ---------------------------------------------------
  free  energy   TOTEN  =      -299.061767 eV

  energy  without entropy=     -299.013296  energy(sigma->0) =     -299.045610
 


--------------------------------------------------------------------------------------------------------


    POTLOK:  cpu time    1.50: real time    1.50


--------------------------------------------------------------------------------------------------------


 writing wavefunctions
     LOOP+:  cpu time 1563.70: real time 1576.51
    4ORBIT:  cpu time    0.00: real time    0.00
 


 total charge     
 
# of ion     s       p       d       tot
----------------------------------------
  1        0.868   1.779   0.000   2.647
  2        0.868   1.779   0.000   2.647
  3        0.858   1.761   0.000   2.620
  4        0.868   1.779   0.000   2.647
  5        0.868   1.779   0.000   2.647
  6        0.859   1.762   0.000   2.621
  7        0.644   0.044   0.000   0.689
  8        0.644   0.044   0.000   0.688
  9        0.644   0.044   0.000   0.689
 10        0.644   0.044   0.000   0.688
 11        0.644   0.081   0.000   0.725
 12        0.645   0.081   0.000   0.726
 13        0.644   0.081   0.000   0.725
 14        0.644   0.081   0.000   0.726
 15        1.222   2.724   0.000   3.947
 16        1.224   2.720   0.000   3.943
 17        0.536   0.238   8.750   9.523
 18        0.537   0.237   8.750   9.524
 19        0.536   0.238   8.750   9.523
 20        0.536   0.238   8.749   9.523
 21        0.537   0.238   8.749   9.524
 22        0.537   0.238   8.749   9.524
 23        0.537   0.238   8.749   9.524
 24        0.537   0.238   8.749   9.524
 25        0.537   0.238   8.750   9.524
 26        0.537   0.237   8.750   9.524
 27        0.537   0.238   8.750   9.524
 28        0.538   0.237   8.750   9.525
 29        0.537   0.237   8.750   9.524
 30        0.537   0.237   8.750   9.524
 31        0.537   0.237   8.750   9.524
 32        0.537   0.237   8.750   9.524
 33        0.508   0.303   8.754   9.565
 34        0.508   0.303   8.754   9.565
 35        0.508   0.302   8.755   9.565
 36        0.508   0.302   8.755   9.565
 37        0.509   0.303   8.753   9.565
 38        0.509   0.303   8.753   9.565
 39        0.509   0.303   8.753   9.565
 40        0.509   0.303   8.753   9.565
 41        0.509   0.303   8.753   9.565
 42        0.509   0.303   8.753   9.565
 43        0.510   0.302   8.754   9.566
 44        0.510   0.302   8.754   9.566
 45        0.508   0.303   8.754   9.565
 46        0.509   0.302   8.754   9.565
 47        0.508   0.303   8.754   9.565
 48        0.508   0.303   8.754   9.565
 49        0.510   0.302   8.754   9.566
 50        0.510   0.303   8.753   9.566
 51        0.509   0.302   8.754   9.566
 52        0.510   0.302   8.754   9.566
 53        0.507   0.304   8.754   9.564
 54        0.507   0.304   8.754   9.564
 55        0.508   0.303   8.754   9.565
 56        0.508   0.303   8.754   9.565
 57        0.508   0.303   8.754   9.565
 58        0.508   0.303   8.755   9.565
 59        0.508   0.303   8.754   9.565
 60        0.509   0.303   8.753   9.565
 61        0.510   0.302   8.754   9.566
 62        0.510   0.302   8.754   9.566
 63        0.510   0.302   8.754   9.566
 64        0.510   0.302   8.754   9.566
 65        0.539   0.240   8.747   9.526
 66        0.539   0.240   8.747   9.527
 67        0.539   0.240   8.747   9.526
 68        0.539   0.239   8.748   9.526
 69        0.538   0.239   8.749   9.527
 70        0.538   0.239   8.749   9.527
 71        0.539   0.239   8.748   9.527
 72        0.539   0.239   8.748   9.527
 73        0.530   0.239   8.749   9.518
 74        0.534   0.236   8.755   9.524
 75        0.530   0.239   8.749   9.518
 76        0.536   0.239   8.751   9.526
 77        0.538   0.239   8.750   9.527
 78        0.538   0.239   8.750   9.527
 79        0.539   0.239   8.749   9.527
 80        0.539   0.239   8.749   9.527
------------------------------------------------
tot       46.255  33.897 560.099 640.251
 

 total amount of memory used by VASP on root node   239269. kBytes
========================================================================

   base      :      30000. kBytes
   nonlr-proj:      50549. kBytes
   fftplans  :      16659. kBytes
   grid      :     108662. kBytes
   one-center:       1244. kBytes
   wavefun   :      32155. kBytes
 
  
  
 General timing and accounting informations for this job:
 ========================================================
  
                  Total CPU time used (sec):     1667.793
                            User time (sec):     1583.964
                          System time (sec):       83.829
                         Elapsed time (sec):     1686.949
  
                   Maximum memory used (kb):      781204.
                   Average memory used (kb):           0.
  
                          Minor page faults:     14535803
                          Major page faults:            9
                 Voluntary context switches:         3012
